1689
Atoms. Timestep: 0
Ow 9.39124 23.6426 2.08908
H 8.79768 23.4215 2.80679
H 10.2491 23.7286 2.50496
Ow 15.9526 16.8196 9.38204
H 16.4912 16.7003 8.59975
H 16.4789 17.3942 9.89664
Ow 5.04513 20.5873 17.2884
H 5.4508 20.0427 16.6145
H 4.11638 20.6034 17.0572
Ow 8.30171 20.3469 11.325
H 7.45084 19.9333 11.1782
H 8.09874 21.1488 11.8069
Ow 1.15454 3.76374 23.294
H 1.89644 4.30867 23.0302
H 1.26714 2.95067 22.8015
Ow 16.1113 10.57 17.8269
H 16.9305 10.1551 18.0973
H 16.3552 11.1199 17.0825
Ow 12.9082 17.1019 25.6381
H 13.7782 16.9162 25.2845
H 12.7087 17.9868 25.3321
Ow 2.60711 6.15155 22.443
H 2.66556 7.09846 22.3154
H 2.69229 6.07079 23.369
Ow 16.4087 13.3406 6.15291
H 16.6824 14.0658 5.59118
H 16.6318 13.6258 7.03869
Ow 14.7707 22.2351 17.3913
H 14.7149 23.1133 17.0133
H 14.2138 22.2728 18.169
Ow 21.0391 2.8986 25.705
H 20.5005 3.26236 25.0027
H 21.0651 1.95872 25.5256
Ow 10.6451 20.9809 9.99775
H 10.7663 21.8815 10.2989
H 9.76378 20.7475 10.2894
Ow 12.0099 13.838 11.0048
H 12.4512 13.6896 10.1851
H 12.1049 13.0151 11.4845
Ow 10.4668 25.3291 16.9566
H 10.6614 24.9066 16.1199
H 11.3088 25.6743 17.2524
Ow 5.52547 8.2311 11.2445
H 5.05252 8.96552 11.636
H 5.03739 7.45588 11.5223
Ow 6.17684 18.5469 11.0885
H 6.01262 18.187 10.2169
H 5.30754 18.7603 11.4277
Ow 21.1744 23.4129 19.5848
H 21.758 23.9252 20.1445
H 21.0682 22.581 20.0463
Ow 17.4735 1.98204 20.218
H 17.6273 2.89919 20.4464
H 18.1882 1.76084 19.6209
Ow 15.915 18.8855 24.6569
H 16.8681 18.97 24.6923
H 15.693 18.3505 25.419
Ow 3.39595 12.083 4.88998
H 2.70626 12.4426 5.44797
H 3.00455 11.3028 4.49716
Ow 5.64026 4.05331 0.546373
H 5.28817 3.53569 25.2436
H 5.5174 4.96252 25.6948
Ow 3.17169 22.4874 22.9617
H 3.02495 21.7785 22.3355
H 4.10621 22.4397 23.1635
Ow 21.7459 19.985 4.72609
H 21.0234 19.622 4.21367
H 22.2362 19.2193 5.02554
Ow 2.88599 24.0126 11.8219
H 2.7811 24.3346 12.7172
H 3.81014 23.7707 11.7605
Ow 22.9459 17.9979 23.8663
H 22.1981 17.9826 24.4637
H 22.9676 18.8456 23.5388
Ow 24.0149 21.691 14.0839
H 24.306 21.6675 14.9953
H 23.099 21.4144 14.1171
Ow 17.101 8.67768 25.7593
H 17.6491 8.17143 25.1592
H 17.228 8.25924 1.1895
Ow 19.4113 25.266 11.8099
H 19.7589 24.4479 12.0333
H 19.0778 25.2297 10.93
Ow 12.3427 22.6007 23.8945
H 12.0411 22.0687 24.6309
H 11.9576 23.4635 24.0481
Ow 10.1717 5.47504 10.2682
H 11.0707 5.23562 10.0429
H 9.8217 5.87177 9.4706
Ow 23.0591 15.1399 16.079
H 23.3296 14.9603 15.1785
H 23.684 15.7944 16.3913
Ow 14.6693 17.5435 13.1299
H 14.6249 17.4384 14.0803
H 14.0781 18.2723 12.9411
Ow 2.22795 20.8204 16.7601
H 1.72705 20.0053 16.7909
H 2.2356 21.0626 15.834
Ow 14.196 1.75666 7.25744
H 13.7588 1.14737 6.66253
H 14.5069 2.46306 6.69116
Ow 16.1036 19.9238 16.2947
H 15.516 20.5793 16.6707
H 16.3647 20.2946 15.4756
Ow 6.08316 20.6479 4.07564
H 6.23832 20.2849 4.94768
H 6.77799 20.2747 3.53319
Ow 19.6154 18.8326 3.45191
H 18.888 19.2542 2.99529
H 19.2129 18.4242 4.21835
Ow 5.56575 14.6487 20.1938
H 5.06561 15.3461 19.7697
H 4.94286 14.2366 20.7925
Ow 13.9404 1.17831 11.71
H 13.7558 2.11231 11.6106
H 13.5447 0.772049 10.9389
Ow 1.94658 11.7485 8.67794
H 1.32349 11.7407 9.40458
H 1.91286 10.86 8.32332
Ow 20.1809 23.5378 23.5454
H 20.0594 22.5936 23.4457
H 19.8921 23.8826 22.7553
Ow 21.1777 4.86257 15.1959
H 21.3166 5.72032 14.7952
H 21.6276 4.25034 14.6137
Ow 19.3307 10.4064 10.3328
H 20.1169 10.0533 10.7494
H 19.1941 11.2535 10.7572
Ow 22.1897 15.8799 7.54721
H 22.3083 16.7641 7.20036
H 21.2619 15.6899 7.40802
Ow 6.28917 2.67384 20.2418
H 7.09251 2.76974 20.7539
H 6.51129 3.02457 19.3792
Ow 22.4452 2.88274 13.6893
H 22.1541 2.17078 14.2591
H 22.0972 2.65719 12.8265
Ow 19.3846 4.41061 12.2842
H 20.1334 4.26253 11.7065
H 18.6517 3.98221 11.8418
Ow 24.4538 21.5804 24.721
H 24.0473 20.94 25.3049
H 25.157 21.9681 25.2422
Ow 9.04314 19.3031 13.7806
H 9.06866 19.2635 12.8245
H 8.4001 18.6397 14.0312
Ow 17.3252 17.9305 11.4266
H 16.4435 17.8591 11.7926
H 17.5918 18.8291 11.6178
Ow 8.61536 9.76196 5.60725
H 9.37068 10.3408 5.71096
H 8.95375 8.88831 5.80357
Ow 17.8538 3.36787 2.86666
H 18.5537 2.82285 3.22617
H 17.1475 2.75248 2.67
Ow 16.3752 7.47612 22.654
H 17.1702 7.04488 22.9675
H 15.7264 7.30987 23.3379
Ow 17.2733 12.6105 15.9905
H 17.6611 13.0888 15.2997
H 17.8715 12.7513 16.7244
Ow 19.0471 13.7259 17.8418
H 19.8754 13.6091 17.3763
H 18.8085 14.6389 17.6818
Ow 4.49685 25.3794 7.83344
H 4.03075 0.684574 7.4201
H 4.83431 25.7452 8.65118
Ow 6.95181 12.8414 16.9918
H 6.83429 12.1793 16.3105
H 6.48882 13.6111 16.6608
Ow 12.3393 1.29383 18.2799
H 12.0427 1.26552 19.1897
H 13.2851 1.42454 18.3405
Ow 21.9328 0.925057 16.0487
H 21.7838 25.4017 16.0889
H 22.6442 1.08256 16.6695
Ow 22.5253 20.5786 22.1827
H 23.0212 20.5274 21.3656
H 22.7632 21.4276 22.5551
Ow 23.5102 23.3441 18.3312
H 22.692 23.3535 18.8279
H 23.8248 22.4429 18.4039
Ow 11.5929 18.8644 5.88848
H 10.9067 18.6957 5.2428
H 11.2397 19.5652 6.43659
Ow 3.22646 16.8412 0.598835
H 2.88594 17.7285 0.485031
H 3.96656 16.7887 25.4153
Ow 4.18717 25.8763 19.3999
H 3.4134 0.928171 19.0928
H 4.00117 24.9584 19.2004
Ow 15.197 7.30481 19.2505
H 15.2631 8.14415 19.706
H 14.959 6.6788 19.9344
Ow 0.926097 16.2611 21.5042
H 1.09886 15.3196 21.534
H 1.12342 16.5127 20.602
Ow 10.583 11.6312 5.89811
H 11.2881 11.1574 6.33923
H 10.3886 12.3672 6.47845
Ow 0.627066 24.6936 9.64576
H 25.8641 24.786 8.71095
H 25.1854 24.6782 10.0598
Ow 9.34545 9.55426 2.83907
H 8.95857 10.3318 2.43639
H 9.40582 9.77077 3.76953
Ow 24.2966 22.8926 3.30092
H 24.472 23.3632 4.11584
H 24.9376 23.2398 2.68054
Ow 19.4578 15.4772 9.61324
H 18.7357 14.9355 9.29476
H 20.202 14.8775 9.66697
Ow 8.41243 10.7026 8.46212
H 9.02839 10.0018 8.67611
H 8.15735 11.0653 9.31046
Ow 23.3437 24.2187 13.4286
H 22.5972 24.3184 14.0195
H 23.8783 23.5341 13.8312
Ow 3.29894 2.11829 6.55122
H 3.57039 2.81832 7.14501
H 2.38173 2.15648 6.55339
Ow 9.53804 9.88256 12.4321
H 8.86389 10.1678 13.0489
H 10.3646 10.0564 12.8825
Ow 6.76872 18.7834 25.0106
H 7.69123 18.9298 24.8011
H 6.33847 19.6091 24.7884
Ow 5.4801 25.8243 10.2022
H 4.76222 0.919159 10.569
H 6.26943 0.895203 10.4281
Ow 10.8638 25.0152 21.7961
H 11.0054 0.501735 21.5278
H 10.8931 25.0402 22.7526
Ow 6.85643 23.0497 19.8027
H 6.40611 23.5506 20.4828
H 7.27533 22.3289 20.2732
Ow 1.41608 11.4289 12.8419
H 1.4448 12.0745 13.5482
H 0.932383 10.69 13.2124
Ow 11.4236 20.8758 21.7943
H 11.8189 21.5038 22.3989
H 11.7156 21.16 20.9281
Ow 7.13987 17.204 7.34887
H 7.8166 17.4231 7.98942
H 7.58306 16.6399 6.71505
Ow 15.2401 1.27079 18.6231
H 15.9858 1.32097 19.2211
H 15.4139 1.94447 17.9657
Ow 24.2932 1.75309 20.1187
H 24.4326 2.60333 19.7016
H 24.9752 1.69947 20.7882
Ow 24.6797 16.641 3.0084
H 23.7742 16.5816 3.31309
H 25.0955 15.8428 3.33448
Ow 24.4661 4.00855 25.294
H 24.9967 4.23411 24.5299
H 23.7202 4.60711 25.2535
Ow 12.7595 23.8203 1.95774
H 13.3067 23.8658 2.74181
H 12.4421 24.7149 1.83432
Ow 24.0916 17.9815 8.50166
H 24.3214 18.8975 8.65774
H 23.4293 17.7839 9.16392
Ow 14.8989 4.01167 5.33379
H 14.5454 4.44496 6.11072
H 15.8305 4.23188 5.33921
Ow 24.091 3.32116 10.7257
H 24.439 4.0233 11.2754
H 24.8663 2.85798 10.4085
Ow 17.7811 12.9415 8.65599
H 18.4066 12.3106 8.29976
H 17.311 12.4559 9.33383
Ow 5.59463 8.36119 14.4801
H 4.80934 7.93881 14.132
H 5.70696 7.97877 15.3504
Ow 12.3971 7.26376 4.22745
H 13.2428 7.59478 4.53014
H 11.7523 7.74704 4.74276
Ow 2.59012 24.9151 3.30894
H 2.55773 25.8301 3.02928
H 3.50359 24.772 3.55635
Ow 2.44675 5.1038 19.7415
H 3.13349 5.53501 19.2328
H 2.40802 5.59912 20.5596
Ow 8.53267 24.5632 7.89518
H 8.65327 25.2668 8.53289
H 8.07015 24.9766 7.16618
Ow 14.0196 21.0737 7.20373
H 14.2834 21.7992 7.76969
H 13.8515 20.3486 7.80571
Ow 14.47 2.53871 21.225
H 14.7264 2.20751 20.3642
H 14.9151 1.9623 21.8462
Ow 16.375 11.8341 10.681
H 16.5141 11.3847 11.5147
H 16.0453 12.6986 10.9263
Ow 20.5023 20.4517 7.25606
H 20.1599 19.5778 7.44408
H 20.9626 20.3549 6.42237
Ow 14.9827 17.3572 16.0874
H 15.4822 18.1712 16.1535
H 15.1795 16.9071 16.8533
Ow 18.688 9.14963 7.22673
H 19.1951 9.9602 7.18058
H 19.3024 8.46655 6.95782
Ow 7.49328 15.778 21.6969
H 6.86414 15.3868 21.0907
H 6.96185 16.077 22.434
Ow 9.01415 8.91468 18.9547
H 9.32544 8.17618 18.4312
H 8.40799 9.37931 18.3776
Ow 23.6484 4.19336 3.59036
H 23.5906 4.0918 4.54045
H 23.447 3.32425 3.2434
Ow 25.1922 8.74548 19.9268
H 25.4502 9.61553 19.6221
H 25.5705 8.14445 19.2849
Ow 12.6361 12.4681 16.3846
H 12.1306 13.1665 15.9687
H 12.6313 12.6901 17.3158
Ow 17.9417 24.5405 9.51053
H 18.2797 23.6839 9.24923
H 17.3356 24.7832 8.81006
Ow 1.18847 1.70893 21.3579
H 1.46135 0.872806 21.7354
H 1.99412 2.08785 21.0062
Ow 20.5023 1.129 21.7302
H 19.8634 25.8477 21.6107
H 20.7205 1.40882 20.8411
Ow 8.0295 6.83737 11.863
H 7.36743 7.48959 11.6336
H 8.26192 7.03969 12.7692
Ow 8.26965 3.2142 24.6449
H 7.53986 3.09221 25.2522
H 8.9568 2.63593 24.9762
Ow 14.0622 14.2463 0.736358
H 13.5608 13.5014 25.826
H 13.9144 14.9403 25.5152
Ow 5.44949 13.9794 24.8848
H 5.84737 13.3852 24.2483
H 4.84304 13.4292 25.3803
Ow 2.10637 22.5442 5.01058
H 1.15778 22.5368 5.13868
H 2.24545 23.1495 4.28221
Ow 0.69386 21.46 20.4262
H 25.8333 22.058 21.1177
H 1.64008 21.3814 20.5476
Ow 3.10456 19.97 6.1751
H 2.75775 20.8261 5.92392
H 2.64779 19.7552 6.98848
Ow 23.5001 18.9793 16.4144
H 22.6503 19.3303 16.6809
H 23.4634 18.9621 15.4581
Ow 21.72 4.99918 10.7538
H 22.5381 4.5137 10.8606
H 21.84 5.78944 11.2805
Ow 17.2382 4.86624 0.713247
H 17.0351 4.08779 25.6164
H 17.633 4.52491 1.51557
Ow 1.16789 25.6582 25.2795
H 2.08392 25.3809 25.2985
H 1.16874 1.09723 25.6991
Ow 24.9586 4.85057 16.3981
H 24.4085 5.63397 16.3986
H 25.8515 5.18452 16.3093
Ow 8.36634 21.2518 21.5191
H 9.29719 21.0668 21.6426
H 7.97078 20.3957 21.3548
Ow 24.0921 8.86909 9.30738
H 24.5298 8.15371 9.76882
H 23.6065 8.43907 8.6034
Ow 16.9764 12.8669 21.787
H 16.3099 13.5466 21.8874
H 17.7194 13.3169 21.3848
Ow 8.43317 22.2577 25.1661
H 7.4835 22.3456 25.0842
H 8.6425 22.6817 0.577085
Ow 13.2803 17.0092 9.7362
H 12.6911 16.8732 8.99416
H 14.151 16.8124 9.39059
Ow 20.9581 22.1585 2.54148
H 21.435 22.9856 2.46703
H 20.3543 22.1622 1.79895
Ow 16.6426 18.789 20.8727
H 16.7448 19.6347 21.3095
H 16.2965 18.2089 21.551
Ow 16.3636 21.9308 4.97444
H 15.6963 22.5854 4.768
H 17.1895 22.4141 4.95048
Ow 10.378 11.1717 23.027
H 10.4632 10.5333 22.3188
H 9.86856 11.8867 22.6455
Ow 13.7755 8.50241 25.38
H 14.2113 7.72527 25.0301
H 13.0365 8.1577 25.8811
Ow 20.2262 13.6971 5.52327
H 19.7663 13.0405 6.04571
H 20.0339 14.5281 5.95761
Ow 14.8439 8.52983 4.64148
H 15.4954 8.30994 3.97569
H 15.2768 9.17851 5.1963
Ow 25.1892 7.83181 23.4051
H 24.3873 8.00791 23.8973
H 25.867 7.74361 24.0756
Ow 14.805 14.0401 16.4686
H 14.1352 13.3762 16.3052
H 15.6287 13.6118 16.237
Ow 22.2497 20.909 11.2092
H 21.6109 20.2516 10.9333
H 23.0682 20.4223 11.3064
Ow 7.34918 22.4531 12.9433
H 7.6145 23.2884 13.3283
H 6.82613 22.6964 12.1794
Ow 14.3177 23.7891 4.18154
H 14.8742 24.354 3.6455
H 13.7547 24.3934 4.66393
Ow 25.8208 18.5992 23.1843
H 0.764734 17.9835 22.5489
H 25.1868 19.1128 22.6844
Ow 17.6857 23.5303 15.2582
H 17.9633 24.2562 14.6994
H 16.8738 23.8358 15.663
Ow 18.2186 21.7415 20.9738
H 17.4826 21.5095 21.5403
H 17.868 21.6751 20.0855
Ow 15.1404 10.5254 23.9994
H 14.5935 11.292 24.171
H 14.6838 9.80329 24.431
Ow 8.54417 0.949889 19.4537
H 7.67554 1.35209 19.459
H 8.77897 0.873553 20.3785
Ow 12.5919 11.3074 1.51304
H 11.9478 11.7411 2.07283
H 12.3622 10.3794 1.55712
Ow 8.64773 2.94043 21.5598
H 8.58313 3.06715 22.4632
H 9.38438 3.47879 21.2702
Ow 21.4288 1.70602 11.4458
H 22.3191 1.40465 11.2641
H 20.969 0.924688 11.7531
Ow 18.2346 11.1383 23.6503
H 19.1133 11.4468 23.8717
H 17.7639 11.9273 23.3816
Ow 17.6388 11.6157 2.83615
H 17.6772 12.3934 2.27941
H 16.73 11.3212 2.77464
Ow 16.7674 10.5275 13.2059
H 16.7645 9.57923 13.0754
H 15.9637 10.705 13.6947
Ow 23.7868 20.4128 19.5276
H 24.0616 19.5486 19.2212
H 24.6044 20.8957 19.6487
Ow 3.07408 6.35806 25.1393
H 2.87905 5.69111 25.7977
H 4.01927 6.49294 25.2068
Ow 22.9437 10.8415 25.112
H 22.8669 9.92391 24.8504
H 23.6098 10.84 25.7995
Ow 24.2017 6.71267 5.03938
H 25.1108 6.88998 5.28108
H 24.241 5.89749 4.53915
Ow 6.94873 16.2776 16.6851
H 7.84344 16.0122 16.8962
H 6.69027 16.8483 17.4088
Ow 22.4089 7.96669 7.0766
H 22.9281 7.26891 6.67678
H 22.7711 8.77409 6.71163
Ow 14.5232 6.0798 1.73942
H 14.7386 6.02485 0.825619
H 15.0884 5.50353 2.2033
Ow 11.8082 2.06198 20.8429
H 12.7581 1.9849 20.753
H 11.6727 2.93121 21.2203
Ow 6.18245 25.4853 17.64
H 6.64395 0.677385 17.1361
H 5.57914 0.615124 18.1386
Ow 7.93734 22.924 4.43426
H 7.1909 22.3284 4.36845
H 8.2594 22.8073 5.3281
Ow 2.79116 13.9984 17.7774
H 3.31671 13.4707 18.3788
H 3.14795 14.8833 17.8605
Ow 21.8761 5.07973 6.94188
H 22.6735 4.63348 7.22729
H 21.4638 4.4668 6.33277
Ow 6.08502 20.1916 14.4673
H 6.62348 20.7919 13.9515
H 5.26306 20.1281 13.9808
Ow 5.00022 13.2225 11.3339
H 4.76073 12.297 11.2853
H 5.58696 13.2793 12.0881
Ow 10.5882 18.3955 20.1948
H 10.2749 19.1783 19.7424
H 10.1129 17.6736 19.7837
Ow 2.11733 1.89157 15.4423
H 2.81722 2.16547 14.8501
H 1.31658 2.22896 15.0407
Ow 17.3825 4.68899 21.264
H 16.4383 4.84223 21.2264
H 17.7603 5.38622 20.7278
Ow 11.3442 5.70079 19.3117
H 11.0328 4.83375 19.5718
H 11.0556 6.28078 20.0164
Ow 7.97122 14.1071 0.862916
H 8.67412 14.3061 25.6655
H 7.16645 14.2894 25.7991
Ow 22.7615 19.962 1.08117
H 23.4951 19.365 0.933491
H 22.0743 19.6478 0.49351
Ow 8.69329 8.0008 23.4338
H 9.04476 8.84948 23.7031
H 8.44962 7.57084 24.2536
Ow 20.1575 10.4466 1.13627
H 20.0852 9.99681 1.97816
H 21.014 10.2961 0.876981
Ow 18.6375 6.67182 19.3963
H 19.4884 6.79513 18.9753
H 18.0225 6.57137 18.6696
Ow 18.929 22.51 0.70445
H 18.7403 23.3944 1.01823
H 19.2512 22.6357 25.2332
Ow 25.3884 4.05135 18.9525
H 0.735213 4.40766 19.3989
H 25.4566 4.38044 18.0566
Ow 6.98305 13.7116 13.0678
H 7.26987 14.598 12.8479
H 7.53188 13.4595 13.811
Ow 16.1347 6.3381 7.39955
H 15.1926 6.1695 7.41545
H 16.2216 7.24351 7.6978
Ow 6.71812 4.4822 10.9903
H 6.41102 4.70684 10.1119
H 7.36418 5.15706 11.1986
Ow 6.86651 2.90352 4.862
H 7.23573 3.41474 5.58217
H 6.60403 2.0759 5.26507
Ow 13.0195 12.0908 24.3628
H 12.6978 11.7072 23.5469
H 12.5564 11.6137 25.0513
Ow 13.4564 14.5967 13.8671
H 13.9855 14.9041 14.6028
H 12.6141 14.3641 14.2579
Ow 7.22743 25.1365 13.868
H 6.68127 25.653 13.331
H 7.71521 25.7868 14.3735
Ow 8.67778 11.3324 25.2004
H 9.40943 11.5821 24.6359
H 8.73826 11.9263 0.527288
Ow 8.82574 5.62099 25.3417
H 9.56 5.79272 24.7521
H 8.45358 4.79665 25.0287
Ow 1.20773 7.17251 18.1555
H 2.01408 6.88759 18.5863
H 1.25767 6.79277 17.2782
Ow 19.0845 0.499008 6.06314
H 18.8174 25.0094 6.18597
H 19.9107 0.573303 6.54075
Ow 4.34465 10.5948 11.9692
H 4.69341 10.9038 12.8054
H 3.40258 10.512 12.118
Ow 19.6549 7.0184 3.08046
H 19.6755 6.09402 2.83199
H 20.5395 7.33573 2.89868
Ow 19.9338 1.65796 3.59725
H 19.781 1.05665 2.86827
H 19.6699 1.16511 4.37408
Ow 12.2411 8.41252 11.0784
H 13.0985 8.01453 10.9288
H 12.4182 9.35181 11.1302
Ow 2.8501 16.7669 15.9959
H 2.5759 16.8209 15.0804
H 2.6305 17.5851 16.3296
Ow 24.4751 25.7718 17.6797
H 24.1281 24.9244 17.9586
H 24.491 0.877934 18.4783
Ow 21.8893 14.9725 23.3761
H 21.0858 15.3702 23.0404
H 21.8628 14.0709 23.0556
Ow 10.1283 13.9994 7.72085
H 9.85327 14.431 8.5298
H 10.8471 14.5398 7.3929
Ow 7.3892 10.542 14.1763
H 6.85713 11.2888 14.4512
H 6.78521 9.79949 14.1887
Ow 15.4167 3.2454 16.8566
H 15.9664 3.33665 16.0828
H 14.6892 3.8303 16.6443
Ow 5.32096 21.6506 8.66064
H 4.49028 22.0075 8.34609
H 5.41699 20.8199 8.19473
Ow 19.74 17.4411 0.928194
H 20.6784 17.3378 0.768695
H 19.6893 17.9495 1.73802
Ow 10.5367 23.3798 19.6354
H 11.3445 22.8739 19.5468
H 10.6518 23.8759 20.4459
Ow 2.75997 21.8115 25.6975
H 2.65383 22.2469 24.8521
H 3.62023 22.0946 0.585966
Ow 6.71145 25.6973 6.03111
H 6.2771 25.4592 5.21217
H 6.03684 25.5855 6.70108
Ow 21.5225 2.29268 19.3901
H 21.8168 2.92438 18.7339
H 22.2557 2.22262 20.0016
Ow 15.295 2.22536 2.09223
H 14.6098 2.70718 2.55543
H 15.3378 2.63851 1.2298
Ow 10.9184 9.23211 20.9859
H 10.3017 9.35005 20.2633
H 10.9462 8.28619 21.1255
Ow 10.1878 16.0457 1.57492
H 10.0724 16.9844 1.4268
H 10.6223 15.7294 0.782787
Ow 12.8567 11.285 11.208
H 13.6542 11.3787 10.6869
H 13.1589 11.3099 12.1159
Ow 16.6248 3.46065 14.2308
H 16.6712 2.79512 13.5443
H 16.0893 4.15834 13.8528
Ow 4.87159 10.0483 22.609
H 5.28941 9.60523 21.8705
H 5.37685 9.76996 23.3729
Ow 21.497 9.85797 19.7829
H 20.7605 10.4443 19.6091
H 21.5182 9.77542 20.7363
Ow 25.0425 11.1654 22.8075
H 24.8247 11.2322 23.6875
H 24.6487 11.9366 22.3996
Ow 25.5683 14.2555 16.8719
H 0.91005 14.169 17.4433
H 25.2838 15.1622 16.988
Ow 16.8674 7.54832 3.01313
H 16.3731 7.16887 2.34832
H 17.7125 7.09908 2.99743
Ow 18.6012 7.27839 11.8698
H 17.7654 7.53202 12.2626
H 18.6192 6.32377 11.9383
Ow 6.98027 8.16944 3.28329
H 6.57443 8.20434 4.14954
H 7.73172 8.75907 3.34638
Ow 10.6894 12.544 3.23954
H 10.0117 13.22 3.24783
H 10.8193 12.329 4.11207
Ow 4.93912 12.407 18.6387
H 5.5935 12.4369 17.9407
H 5.24867 13.0414 19.2852
Ow 11.3006 0.633097 12.1909
H 12.1583 1.05134 12.2665
H 10.6919 1.2641 12.5752
Ow 22.9073 24.8429 21.216
H 23.5895 24.5253 21.8075
H 23.3729 25.3929 20.5859
Ow 0.822792 2.47916 1.17503
H 25.5262 2.96113 0.821884
H 0.722221 2.62839 2.11516
Ow 2.37448 15.7656 3.12119
H 1.98065 15.7342 2.24929
H 2.01727 16.5604 3.51742
Ow 6.76254 4.20103 14.9888
H 6.62013 3.72774 15.8086
H 6.25049 3.71755 14.3405
Ow 2.21219 19.2256 25.3106
H 2.24066 20.1758 25.1982
H 1.66714 18.9146 24.5877
Ow 23.4388 11.4496 13.0152
H 23.1227 10.5466 12.9852
H 23.0884 11.8531 12.221
Ow 6.23528 21.2068 23.4785
H 6.13288 22.0431 23.9329
H 7.01801 21.3208 22.9393
Ow 17.9652 1.36422 25.2496
H 18.5025 1.91318 24.679
H 17.3915 0.88547 24.6512
Ow 14.4749 19.4346 19.4195
H 13.8156 18.8064 19.7143
H 15.2726 19.1811 19.8838
Ow 1.78312 21.3715 14.0529
H 1.99517 22.3038 14.0998
H 0.83224 21.3467 13.9455
Ow 24.8229 15.9834 24.9689
H 25.1757 16.7628 25.3987
H 25.209 15.2499 25.4462
Ow 8.13633 16.1212 12.1397
H 8.84914 16.3867 12.7208
H 7.63554 16.9238 11.992
Ow 18.1521 5.68499 9.09549
H 17.3572 5.87 8.59516
H 17.8419 5.23321 9.88036
Ow 24.6821 23.2652 22.5372
H 25.4654 23.8111 22.6067
H 24.6671 22.762 23.3514
Ow 16.7338 5.91408 17.3356
H 16.4981 4.98723 17.2973
H 16.0024 6.32911 17.7929
Ow 9.51813 2.57913 4.26915
H 9.57554 2.25181 5.16685
H 8.62784 2.923 4.19516
Ow 15.1036 21.0092 0.83922
H 15.4428 20.2309 25.8184
H 15.3997 21.741 25.7192
Ow 9.59329 20.7772 18.6355
H 10.078 21.4932 19.0463
H 10.162 20.4784 17.9259
Ow 13.0811 19.7678 9.53995
H 13.1331 18.8121 9.52342
H 12.2123 19.9548 9.89548
Ow 15.1479 10.3329 1.74265
H 14.386 10.8984 1.86911
H 14.8582 9.67919 1.10674
Ow 16.2934 10.2764 6.19158
H 16.423 11.2248 6.18986
H 17.0678 9.92915 6.63445
Ow 0.834995 14.0054 0.956027
H 1.65061 13.504 0.945896
H 25.6691 13.4973 1.51527
Ow 17.443 4.67827 5.67969
H 17.1274 5.54916 5.91795
H 17.5521 4.22454 6.51524
Ow 6.95877 9.80185 17.3594
H 7.37158 10.0281 16.5259
H 6.39072 9.06017 17.1523
Ow 22.6141 8.63514 3.74011
H 22.3982 8.10813 2.9707
H 23.2299 8.09492 4.23596
Ow 14.3641 11.7146 13.898
H 14.7237 12.5679 14.1406
H 13.6993 11.5364 14.5632
Ow 9.12885 16.3351 5.33527
H 8.99044 17.0869 4.80604
H 8.98292 15.5861 4.75738
Ow 5.2998 16.3534 23.5905
H 6.05137 16.7447 24.0359
H 5.25972 15.4587 23.9285
Ow 12.8903 17.7324 2.96978
H 12.1608 17.3475 3.45575
H 12.6829 17.5621 2.05094
Ow 17.2413 1.27699 12.3638
H 17.9002 0.582997 12.3755
H 16.7207 1.10014 11.5802
Ow 18.4188 18.6099 17.8677
H 18.7789 19.2057 17.2107
H 17.4771 18.7813 17.8567
Ow 10.6945 6.60597 13.6048
H 11.2005 7.11907 14.2348
H 9.83703 6.49812 14.0165
Ow 11.7779 15.5678 4.87727
H 10.9097 15.9232 5.06776
H 11.6138 14.8457 4.2707
Ow 4.91436 22.2867 1.89874
H 4.97624 23.0571 2.46304
H 5.03798 21.5449 2.49097
Ow 5.34916 23.2126 15.2866
H 6.11032 23.7723 15.1325
H 5.6536 22.3299 15.0741
Ow 6.07216 15.5243 9.57817
H 5.31968 16.1158 9.56314
H 6.51531 15.6785 8.74381
Ow 9.38572 19.6629 24.7211
H 9.70946 19.2519 25.5218
H 9.21197 20.5711 24.9702
Ow 11.4663 17.27 12.3104
H 11.9692 18.0646 12.4891
H 10.9648 17.1181 13.1114
Ow 24.9964 15.4363 8.23878
H 25.0269 16.3086 8.63183
H 24.7153 14.8619 8.95105
Ow 11.8818 4.64 0.575597
H 11.167 4.7658 25.3728
H 12.2867 3.81322 25.7346
Ow 9.77773 21.8182 15.0096
H 10.6567 21.5011 15.2171
H 9.39629 21.1293 14.4653
Ow 21.9668 16.6254 3.70369
H 22.1844 16.9066 4.59246
H 21.0127 16.5479 3.70331
Ow 23.0858 10.515 6.80885
H 22.386 10.7208 6.18903
H 23.0338 11.1431 7.47605
Ow 4.14142 3.07342 13.5237
H 3.79228 2.78844 12.6793
H 3.79121 3.9563 13.6427
Ow 6.11945 7.38337 21.9922
H 6.34846 7.28177 21.0682
H 6.95888 7.51014 22.4344
Ow 21.3108 12.8921 16.6267
H 21.1416 13.0026 15.6912
H 21.364 11.9444 16.7507
Ow 2.67814 8.65425 20.6917
H 3.36231 8.79551 21.3462
H 3.03998 9.01848 19.8838
Ow 14.6188 5.37449 20.9755
H 14.2573 5.66345 21.8134
H 14.654 4.4205 21.0455
Ow 11.7555 8.83516 2.01278
H 12.0273 8.47035 2.80147
H 10.8028 8.87449 2.09746
Ow 0.943112 13.4181 3.94229
H 1.57185 14.0354 3.57007
H 0.954923 13.6013 4.88176
Ow 17.0353 4.13821 11.16
H 16.4312 3.50364 10.774
H 16.4933 4.65194 11.7588
Ow 21.1009 21.3592 14.549
H 20.28 21.2851 15.0358
H 20.8308 21.5633 13.6533
Ow 3.37703 10.1721 18.3975
H 3.52154 9.86697 17.5018
H 4.13513 10.7246 18.5881
Ow 5.64579 8.51404 5.68456
H 4.70074 8.40067 5.78612
H 6.0183 7.67315 5.95004
Ow 23.33 13.9251 5.75812
H 23.1494 14.5331 6.47498
H 23.9152 13.2708 6.13997
Ow 5.75066 24.7098 21.6125
H 5.97576 25.2203 22.39
H 5.30091 25.3307 21.0393
Ow 20.999 13.3948 13.9134
H 20.4485 12.6366 13.7177
H 21.8912 13.0953 13.7383
Ow 18.78 10.0198 18.5079
H 18.7125 9.52858 19.3264
H 19.0275 10.9039 18.7775
Ow 23.1069 11.9796 19.3687
H 22.5395 11.2214 19.5083
H 23.9948 11.6228 19.3941
Ow 7.1759 1.63386 2.07827
H 6.46063 1.06569 1.79214
H 7.96856 1.19775 1.76553
Ow 2.74025 17.1963 13.2241
H 2.66769 16.4379 12.6445
H 1.87828 17.6109 13.186
Ow 12.566 7.8274 15.5056
H 12.9371 8.08592 16.3494
H 13.3199 7.54302 14.9889
Ow 9.57434 3.3282 18.355
H 9.41906 2.6057 18.9634
H 10.0342 2.92649 17.6177
Ow 20.2624 13.1592 1.91223
H 19.3775 13.4629 2.11491
H 20.1532 12.2354 1.6862
Ow 6.40726 11.9346 5.62661
H 6.74965 11.7179 4.75935
H 5.46371 12.0286 5.49548
Ow 1.467 24.7502 22.7231
H 1.28414 25.013 23.6253
H 2.10568 24.0417 22.804
Ow 3.01452 15.2187 11.3549
H 2.20434 14.7314 11.505
H 3.6947 14.5468 11.3176
Ow 0.511864 23.0937 0.969853
H 1.41188 22.7835 0.869715
H 0.549463 24.0201 0.731791
Ow 10.0345 5.2375 3.83841
H 9.35638 5.25145 3.16288
H 9.91063 4.39986 4.28482
Ow 4.23196 5.78936 11.9042
H 3.97981 5.54385 12.7939
H 4.86816 5.12366 11.6426
Ow 19.465 2.33262 15.5162
H 20.3683 2.05019 15.6598
H 19.0246 2.12434 16.2833
Ow 22.674 3.82809 17.1453
H 22.1303 4.25981 16.4862
H 23.5706 4.06852 16.9117
Ow 9.4216 2.33081 13.4019
H 8.75849 2.27864 12.7135
H 9.89236 3.0796 13.1936
Ow 23.5847 25.148 10.8277
H 23.0668 24.5409 10.3106
H 23.5306 24.901 11.706
Ow 16.8946 19.4661 7.67744
H 16.679 18.5369 7.757
H 16.3814 19.8913 8.36448
Ow 5.57768 23.1251 11.1254
H 5.7589 24.0595 11.024
H 5.54677 22.7881 10.2299
Ow 14.0285 15.4689 6.86109
H 13.3207 15.4439 6.21714
H 14.7595 15.0253 6.43108
Ow 16.8733 13.2302 25.5733
H 17.5779 13.8485 25.7687
H 16.1041 13.7292 25.5065
Ow 4.29964 14.5154 15.0126
H 4.01381 15.3647 15.3481
H 4.96446 14.7282 14.3576
Ow 13.0704 13.2321 8.49488
H 12.869 12.5436 7.86112
H 13.6028 13.8599 8.00618
Ow 1.57833 25.0917 16.6282
H 1.72704 0.553659 16.2908
H 0.758413 25.1567 17.1179
Ow 23.2606 18.039 5.82345
H 23.9178 18.2969 5.17697
H 23.7486 17.9593 6.6431
Ow 22.2563 16.7372 10.4264
H 23.1624 16.7471 10.7332
H 22.2571 16.1226 9.69278
Ow 6.83135 11.5844 2.96918
H 6.69331 12.4619 2.61234
H 6.11071 11.0645 2.61332
Ow 3.08208 23.0049 8.34095
H 2.27761 22.7764 7.87522
H 3.20055 23.9395 8.17102
Ow 2.21226 4.80633 1.84985
H 1.40384 5.24678 1.8983
H 1.96974 3.93996 1.5229
Ow 11.3109 16.9133 7.81968
H 11.2397 17.606 7.16287
H 10.5681 17.0601 8.40542
Ow 7.56297 1.90605 11.3219
H 8.20921 1.92981 10.6812
H 7.17593 2.78152 11.3295
Ow 12.4632 19.4329 24.6447
H 12.356 20.0846 25.3376
H 13.2064 19.749 24.1308
Ow 12.7937 25.4474 5.68452
H 12.2265 25.878 5.04485
H 12.1908 24.9878 6.26892
Ow 0.939654 9.28306 16.0562
H 1.11165 9.02145 16.9608
H 25.598 9.85839 16.1132
Ow 6.95644 3.04838 17.7373
H 7.91094 3.05079 17.8094
H 6.7127 3.97395 17.7461
Ow 18.8394 22.959 4.48197
H 19.4173 22.1989 4.54956
H 19.2906 23.5508 3.87984
Ow 21.165 7.40205 18.481
H 21.0219 8.28345 18.826
H 21.9127 7.06866 18.9771
Ow 3.97182 3.86659 8.53978
H 3.47507 4.68248 8.48268
H 4.88723 4.13724 8.46832
Ow 21.729 10.242 16.4363
H 20.9231 9.95028 16.009
H 21.9688 9.51898 17.016
Ow 12.4885 16.1655 19.5028
H 12.0076 16.9863 19.6096
H 12.5118 15.7851 20.3809
Ow 15.3007 9.83898 20.5242
H 14.535 10.3639 20.7553
H 15.6019 10.2068 19.6933
Ow 16.2909 25.0251 7.13542
H 15.4591 25.4622 6.9529
H 16.9141 25.7399 7.26439
Ow 13.2279 25.3478 9.23479
H 12.4894 24.8489 8.88536
H 13.3761 0.618784 8.59057
Ow 2.63659 23.9165 14.5318
H 2.26244 24.4409 15.2398
H 3.50666 23.6726 14.8477
Ow 25.3272 21.6981 10.92
H 24.8297 22.1932 11.571
H 24.8866 20.8495 10.8758
Ow 14.9548 3.17674 24.9377
H 15.4591 2.61401 24.35
H 14.0481 2.89403 24.8211
Ow 3.70678 3.13497 21.157
H 3.39065 3.86572 20.6255
H 4.5772 2.94316 20.8078
Ow 15.9611 24.9306 2.39028
H 15.7931 25.8672 2.49421
H 15.6065 24.7175 1.52708
Ow 5.92863 19.6031 6.74911
H 5.00778 19.4122 6.57047
H 6.30966 18.7549 6.97688
Ow 18.9687 15.1297 25.1765
H 18.9703 15.9305 25.7009
H 18.3083 15.2861 24.5015
Ow 25.2112 18.4259 1.0706
H 25.2607 17.8252 1.81355
H 0.686497 18.7415 0.957085
Ow 8.008 22.3617 17.0964
H 8.44284 22.1242 16.2773
H 8.39331 21.7787 17.7505
Ow 14.7151 6.05063 24.3776
H 14.0779 5.9763 23.6671
H 14.9501 5.14661 24.5846
Ow 5.03164 11.6811 8.8078
H 4.87165 10.7451 8.92871
H 4.15844 12.0724 8.78225
Ow 13.7772 12.126 5.81606
H 14.4689 12.597 5.35104
H 13.5866 11.3699 5.26126
Ow 18.6258 24.4703 21.6041
H 18.1863 23.6624 21.3387
H 18.086 24.8136 22.3171
Ow 18.5766 25.0782 2.07056
H 18.5962 25.5485 1.23709
H 17.6504 25.0551 2.31139
Ow 11.8599 13.4779 18.839
H 10.905 13.4745 18.9046
H 12.1065 14.3931 18.9706
Ow 25.1246 11.3255 10.2652
H 24.7211 10.654 9.71513
H 25.3699 10.8635 11.0669
Ow 9.088 17.7255 9.27603
H 9.51109 18.3982 9.8096
H 9.06391 16.9521 9.83965
Ow 20.0833 16.2109 13.2069
H 20.5986 15.4454 13.4615
H 20.6385 16.9587 13.4288
Ow 9.8986 7.39308 5.6859
H 9.71823 6.68924 5.06269
H 10.4783 6.99557 6.33572
Ow 15.063 23.0965 8.60537
H 15.4246 23.7159 7.97142
H 14.4564 23.6179 9.13127
Ow 12.1359 2.66048 15.6121
H 12.3099 2.5918 16.5506
H 12.7094 2.00599 15.2132
Ow 11.8342 21.3465 1.15906
H 11.1918 21.1994 1.85326
H 12.3968 22.0438 1.49662
Ow 11.2514 16.4192 23.5379
H 11.7342 15.9952 22.8899
H 11.7971 16.3767 24.3233
Ow 15.661 18.1385 1.85676
H 14.873 17.7803 2.17712
H 16.3451 17.511 2.0906
Ow 21.1038 18.6982 14.3308
H 21.0397 19.6439 14.4645
H 22.0196 18.5508 14.0942
Ow 13.8822 14.3852 3.7308
H 14.0119 14.1799 2.80485
H 13.4869 15.257 3.73031
Ow 25.5835 11.1368 5.49666
H 24.6875 10.921 5.75551
H 25.6539 10.8262 4.59391
Ow 11.4108 19.7908 16.9458
H 11.7947 18.9158 16.8878
H 11.6496 20.2128 16.1204
Ow 4.20665 13.502 2.56048
H 3.70668 13.2479 3.33617
H 3.74235 13.0919 1.83067
Ow 8.22058 1.34922 15.6024
H 8.49992 1.94326 14.9057
H 9.01338 0.866499 15.8383
Ow 6.3742 9.68374 25.0687
H 7.16227 10.2269 25.0543
H 6.05516 9.74753 0.547313
Ow 5.21266 11.9592 14.8989
H 4.53872 11.3216 15.1347
H 4.79514 12.8102 15.0322
Ow 5.4098 8.90582 8.52714
H 4.62662 8.48527 8.17206
H 5.5236 8.5104 9.39144
Ow 9.58372 2.49501 7.02797
H 10.4216 2.94505 6.91972
H 8.93889 3.19983 7.08919
Ow 25.2098 6.05768 1.98782
H 24.3497 5.86728 1.61331
H 25.2807 7.01168 1.95349
Ow 12.9638 14.3924 21.5805
H 12.7196 13.5082 21.309
H 13.881 14.3189 21.8438
Ow 10.7515 21.2002 7.17767
H 9.87658 21.5887 7.18112
H 10.8978 20.9303 8.08432
Ow 5.81124 18.3622 18.556
H 6.38669 18.5904 19.2861
H 5.5075 19.2047 18.2172
Ow 19.4551 11.0685 13.5506
H 19.8474 10.2073 13.4066
H 18.5353 10.9564 13.3101
Ow 21.4736 23.7336 16.2183
H 22.1197 23.3286 16.7969
H 21.2494 23.0463 15.5905
Ow 20.0361 3.70352 5.41644
H 20.2117 3.90648 4.4976
H 19.101 3.87467 5.52588
Ow 9.38252 14.9471 10.0606
H 8.84049 15.2264 10.7985
H 10.2005 14.653 10.4614
Ow 20.0237 2.8061 9.21762
H 20.4667 2.1808 8.64404
H 20.2804 2.54424 10.1018
Ow 0.775786 3.03576 3.84285
H 0.721634 2.20784 4.32024
H 25.3066 3.38613 3.86831
Ow 24.3607 13.5259 21.7229
H 25.2962 13.7251 21.7061
H 24.0576 13.7212 20.8357
Ow 24.5122 11.5597 16.2409
H 23.8354 11.2482 15.6399
H 25.2592 11.7615 15.6774
Ow 3.65517 19.7167 12.7389
H 2.96733 20.2849 13.0858
H 3.36648 18.8302 12.9561
Ow 2.78455 9.18131 4.383
H 1.97478 9.61761 4.11669
H 2.58493 8.26371 4.38304
Ow 18.577 9.00554 20.9181
H 18.5881 8.11502 20.5672
H 19.4081 9.08973 21.3855
Ow 24.7829 5.25889 22.2733
H 25.0604 6.16608 22.401
H 25.5415 4.73682 22.5346
Ow 22.439 3.88533 22.7202
H 23.3097 4.27766 22.6563
H 21.8375 4.60139 22.5158
Ow 24.8885 21.3532 16.7623
H 24.6187 20.4587 16.5541
H 25.8317 21.3634 16.5993
Ow 23.6433 14.8044 19.4416
H 22.7361 14.5029 19.4924
H 23.6112 15.7134 19.74
Ow 11.0629 23.6523 10.873
H 11.0663 24.5061 11.3058
H 11.6164 23.1008 11.426
Ow 10.1564 11.3895 15.8128
H 9.72336 12.2278 15.6518
H 10.8898 11.6049 16.389
Ow 5.15385 5.27578 4.45172
H 5.60134 5.53914 5.2559
H 4.32993 5.76305 4.46525
Ow 5.97831 12.6383 22.7842
H 5.60704 11.7582 22.8457
H 5.35179 13.1263 22.2498
Ow 21.4052 20.2967 18.0011
H 22.2053 20.3186 18.5255
H 20.7682 19.8436 18.5536
Ow 4.59151 18.2952 3.43777
H 3.68049 18.5845 3.39181
H 5.0857 19.0894 3.64127
Ow 13.295 25.6867 14.3131
H 12.6288 25.0173 14.157
H 13.7432 25.78 13.4724
Ow 21.5642 11.0305 4.50874
H 20.679 10.866 4.18379
H 22.0603 10.2505 4.25995
Ow 5.99292 15.8102 4.23492
H 5.6695 15.6557 5.0883
H 5.94497 16.7618 4.14663
Ow 19.8917 16.4728 22.1834
H 19.0768 16.1587 22.4871
H 19.8266 17.4198 22.3071
Ow 0.856638 9.3506 7.70134
H 0.751671 9.98283 6.99072
H 25.4476 9.38369 8.17646
Ow 12.8945 11.5759 20.4167
H 12.4875 12.1681 19.7842
H 12.4941 10.7245 20.2405
Ow 20.8408 12.4241 24.0877
H 21.4717 11.7938 24.2623
H 20.8567 12.5418 23.1379
Ow 8.45779 14.3859 3.57574
H 7.6114 14.6526 3.93458