1689
Atoms. Timestep: 0
Ow 25.863 20.625 18.3703
H 1.35994 20.5573 18.656
H 25.5898 21.5004 18.6449
Ow 20.0779 16.1606 15.1483
H 20.2531 16.3237 14.2216
H 19.8442 17.0188 15.5031
Ow 23.2361 7.25601 7.79553
H 23.1878 6.32229 7.59061
H 24.1698 7.46255 7.75498
Ow 25.635 2.17954 8.70463
H 0.886914 1.61291 8.57606
H 24.8953 1.8737 8.1798
Ow 7.21014 11.9848 18.1929
H 6.65097 12.262 18.9185
H 8.07665 11.8772 18.585
Ow 15.1778 13.3111 3.47233
H 14.9769 13.1886 4.39983
H 14.4937 12.8249 3.01224
Ow 23.8577 9.88692 16.2064
H 24.4256 9.7442 15.4493
H 24.3655 9.56534 16.9513
Ow 7.44831 1.00183 25.0957
H 8.3118 0.837366 25.4745
H 7.00969 1.56453 25.7337
Ow 24.1901 24.2075 7.94484
H 23.7954 23.3986 8.27038
H 23.4844 24.8528 7.98679
Ow 5.30389 3.22189 21.0649
H 6.12393 3.05878 20.5991
H 5.57569 3.48751 21.9434
Ow 1.2984 17.341 7.31031
H 0.985724 17.3618 8.21473
H 1.39577 18.2621 7.06887
Ow 4.30288 11.3664 4.98768
H 4.72589 11.1132 5.80811
H 3.64471 12.0115 5.24617
Ow 11.4105 13.1809 8.92479
H 11.3737 14.1366 8.88121
H 10.8213 12.8863 8.23036
Ow 11.5159 23.9213 9.99187
H 10.975 23.2917 10.4683
H 11.9167 23.4107 9.40012
Ow 24.4218 15.1161 16.2533
H 24.8952 14.6505 15.5639
H 24.8653 14.862 17.0626
Ow 7.46195 11.5016 23.8065
H 7.75641 12.4097 23.7363
H 7.92988 11.0429 23.1089
Ow 15.2448 11.9222 24.8086
H 14.8879 11.1374 24.3927
H 15.6214 11.608 25.6305
Ow 4.17827 3.73744 18.2363
H 4.35113 2.79743 18.1849
H 3.23035 3.81412 18.1233
Ow 20.031 2.24405 12.6937
H 19.2177 1.83201 12.4021
H 20.067 3.07078 12.2127
Ow 22.8726 17.2434 8.3326
H 23.5876 16.6271 8.1739
H 22.6405 17.5706 7.46357
Ow 20.2806 6.87386 3.77045
H 20.1019 6.13223 4.34862
H 21.1461 7.18318 4.03751
Ow 2.95685 1.87918 21.7346
H 3.66228 2.52565 21.7112
H 3.15813 1.33158 22.4934
Ow 6.30339 10.9556 13.8577
H 6.67547 11.8175 14.0444
H 7.05885 10.4109 13.637
Ow 6.71768 21.9133 19.433
H 6.8073 22.5922 18.7643
H 6.00566 21.3573 19.1167
Ow 14.1741 16.5459 8.95466
H 14.2153 15.59 8.9282
H 14.0504 16.7553 9.88039
Ow 25.0861 9.64276 10.3022
H 24.7129 9.11829 11.0105
H 24.4946 10.3481 10.2136
Ow 2.00146 4.34652 14.4487
H 1.85278 3.7806 15.2062
H 1.31847 4.09808 13.8259
Ow 10.1348 6.93637 19.8881
H 9.54884 6.28965 19.8107
H 10.9862 6.50864 19.7971
Ow 21.1252 21.1602 6.65028
H 21.4144 21.4003 5.77
H 20.4577 21.8102 6.86928
Ow 7.53251 21.3597 22.7445
H 7.53542 20.4109 22.6179
H 7.21619 21.4814 23.6396
Ow 19.2069 17.1012 12.6119
H 19.0917 16.2253 12.2436
H 18.6203 17.6569 12.0987
Ow 22.359 17.4358 22.8438
H 21.4641 17.3485 22.5155
H 22.5666 18.3633 22.7309
Ow 25.6894 4.93076 25.433
H 25.2257 5.71505 25.7261
H 25.0498 4.45508 24.9923
Ow 12.839 10.0029 25.1249
H 13.198 9.86428 24.2485
H 11.8909 9.9436 25.0081
Ow 21.9437 10.9485 2.49971
H 21.1141 10.8117 2.04222
H 22.5726 11.14 1.80405
Ow 24.4507 19.5252 8.86896
H 24.6419 19.2229 9.75667
H 24.005 18.7864 8.45452
Ow 10.0077 23.2136 23.7056
H 10.4019 24.0851 23.7357
H 10.6513 22.6449 24.1293
Ow 19.9345 7.75614 18.1808
H 19.9471 6.81844 17.9893
H 20.1415 8.09279 17.335
Ow 8.12395 1.81005 9.44776
H 8.45267 2.09555 10.3001
H 7.19137 1.64949 9.59171
Ow 14.0681 13.6988 9.02374
H 13.1526 13.4953 9.21526
H 14.5223 13.5676 9.85604
Ow 20.1044 24.1518 14.5824
H 20.5245 23.9207 15.4112
H 19.9586 23.3962 14.1403
Ow 11.0277 23.3155 17.4946
H 10.1432 23.6626 17.6097
H 11.5042 23.6108 18.2705
Ow 10.605 24.7118 12.7362
H 9.81119 24.8394 12.3288
H 10.6434 25.0801 13.5704
Ow 6.37013 5.49276 8.31501
H 6.55103 4.78168 7.70072
H 5.94739 6.16746 7.78375
Ow 22.1856 8.83224 19.8533
H 22.6968 8.36278 20.5118
H 22.0629 8.1979 19.1471
Ow 17.2589 7.15836 15.4538
H 17.0246 7.82336 16.1011
H 17.1778 6.32789 15.9227
Ow 17.7308 9.43604 18.9432
H 18.4955 8.86551 18.8666
H 17.2672 9.32875 18.1127
Ow 8.67773 24.672 18.5932
H 9.43524 25.2536 18.6577
H 7.97108 25.233 18.2736
Ow 1.30647 22.0839 14.0012
H 1.59145 22.564 14.7787
H 0.814097 21.3391 14.3461
Ow 24.5107 13.0099 7.95652
H 25.3165 12.5337 8.15692
H 24.7748 13.9296 7.93384
Ow 12.3875 10.693 6.8848
H 12.6161 10.4152 7.77193
H 11.7845 11.426 7.01141
Ow 23.1629 20.778 16.3076
H 23.6893 21.5475 16.5245
H 22.9813 20.3656 17.152
Ow 9.32783 8.20102 1.29846
H 8.41712 8.22092 1.00454
H 9.30378 8.57032 2.18116
Ow 8.66803 2.27187 12.2285
H 9.37944 2.90706 12.3116
H 7.95512 2.64005 12.7504
Ow 8.03435 20.6659 16.9276
H 8.43968 21.0219 17.7183
H 7.43435 21.3522 16.6357
Ow 0.577687 0.597695 25.5084
H 1.37352 0.814084 0.579469
H 0.549004 1.23783 24.7974
Ow 18.6581 12.0313 13.2936
H 18.2126 11.541 13.9845
H 19.5847 11.8183 13.4074
Ow 24.8655 17.0313 24.7863
H 25.5627 16.7625 24.1882
H 24.7482 17.9654 24.6137
Ow 18.8798 0.674401 16.4891
H 19.233 25.4439 15.8767
H 18.0631 0.967201 16.0847
Ow 12.7205 5.89758 19.1768
H 13.3878 6.23556 19.774
H 13.1011 5.09451 18.8214
Ow 14.3833 6.79505 21.0306
H 13.9225 7.29464 21.7049
H 15.0891 6.35167 21.5008
Ow 20.5056 4.32905 10.9704
H 20.8563 5.17592 11.2459
H 20.4484 4.39168 10.017
Ow 2.162 1.1539 6.04746
H 2.38748 1.5531 5.20733
H 1.92981 25.6659 5.82969
Ow 9.75281 18.8659 15.8623
H 9.22133 19.6339 16.0721
H 9.28773 18.1342 16.2678
Ow 13.5124 8.04243 10.5277
H 13.8803 7.2874 10.0687
H 13.5753 7.81353 11.455
Ow 5.05066 12.9356 20.1995
H 5.37961 13.4244 20.9535
H 4.43858 13.5351 19.7728
Ow 9.79263 5.09166 14.6753
H 10.1956 4.25413 14.904
H 9.98139 5.6605 15.4216
Ow 17.2264 25.2046 18.4002
H 17.784 25.5106 17.6849
H 17.1314 24.2649 18.2451
Ow 3.42764 22.3767 0.719464
H 3.35969 21.4338 0.569945
H 2.97265 22.7711 25.3901
Ow 24.7533 0.81064 10.8611
H 23.9451 25.8624 10.499
H 25.1095 1.3527 10.1568
Ow 21.3989 14.7254 8.99948
H 21.7845 15.5864 8.83829
H 21.15 14.7426 9.92328
Ow 0.911907 5.14937 8.76847
H 1.72316 5.21191 9.27257
H 0.661466 4.22759 8.83014
Ow 5.81826 3.70056 23.584
H 5.51725 3.33441 24.4155
H 6.48055 4.34573 23.8315
Ow 10.5798 2.01513 1.35473
H 11.3921 2.27866 0.92225
H 10.478 1.09009 1.13095
Ow 8.78775 9.25709 22.315
H 9.22662 8.50428 22.7109
H 7.86375 9.00788 22.2843
Ow 12.7655 1.43133 13.2289
H 13.0175 2.33572 13.0426
H 12.9401 1.32126 14.1635
Ow 6.5672 6.01844 2.49513
H 7.18664 5.28978 2.5358
H 7.00838 6.73386 2.95359
Ow 1.86653 5.05704 2.40329
H 2.74913 5.24713 2.08541
H 1.30239 5.19587 1.64261
Ow 7.09677 12.9637 8.87885
H 6.57768 12.3661 8.34075
H 7.10422 13.7852 8.38717
Ow 15.3776 5.40105 23.937
H 15.1702 5.50555 24.8654
H 14.6921 4.82365 23.6012
Ow 17.7117 4.45915 11.2517
H 18.6611 4.5473 11.3354
H 17.3634 5.28498 11.5877
Ow 3.04022 5.19946 24.072
H 2.13223 5.50088 24.0449
H 3.34784 5.40768 23.2815
Ow 18.2946 8.98498 3.97586
H 18.1854 9.50147 3.17746
H 18.9028 8.28812 3.72957
Ow 20.656 9.42628 15.925
H 21.6021 9.45133 15.7827
H 20.3062 9.00588 15.1395
Ow 0.886341 21.9999 10.6061
H 0.675624 21.1004 10.857
H 1.46672 21.9088 9.85045
Ow 14.2536 18.0905 3.29947
H 13.4958 18.2544 3.86085
H 13.9335 17.4781 2.6371
Ow 12.8694 18.5117 24.0744
H 13.6055 18.0055 24.4179
H 13.1072 18.6945 23.1654
Ow 6.58848 10.1162 2.23893
H 6.49292 10.4901 3.11483
H 7.29506 10.622 1.83826
Ow 1.03984 10.891 24.5232
H 0.966412 9.93669 24.5148
H 0.457357 11.1827 23.8219
Ow 24.3351 20.7834 2.02356
H 24.2663 20.3766 1.1599
H 25.1848 20.4955 2.3572
Ow 18.1103 23.2932 12.1111
H 17.8786 22.9691 11.2408
H 17.8957 24.2261 12.0847
Ow 12.661 4.5087 0.573334
H 12.3657 5.07635 25.2762
H 12.8456 3.6699 25.5652
Ow 10.3645 17.3647 23.1237
H 11.268 17.5799 23.3551
H 10.3976 16.4463 22.8561
Ow 3.56184 11.3583 17.2574
H 3.93241 10.6885 16.6834
H 2.65046 11.0925 17.3795
Ow 22.5131 10.1861 7.81248
H 22.638 9.32841 8.21798
H 22.2545 9.99022 6.91191
Ow 23.7894 24.3085 14.0092
H 23.6672 23.4557 13.592
H 23.2786 24.9139 13.4718
Ow 13.5071 25.446 6.83199
H 12.6643 25.2397 6.42803
H 13.9687 0.549641 6.17287
Ow 24.3397 14.6073 22.2182
H 24.2897 13.6544 22.1427
H 24.6981 14.8882 21.4186
Ow 13.239 7.26365 15.2185
H 12.2984 7.43335 15.1678
H 13.5995 7.67259 14.4317
Ow 13.6188 19.712 7.1217
H 12.8282 19.3518 6.7201
H 14.1046 20.0967 6.39219
Ow 24.2146 17.374 20.8688
H 23.7215 18.1919 20.8066
H 23.7497 16.8633 21.5321
Ow 20.7174 2.65393 2.29101
H 20.7898 1.70005 2.26753
H 19.842 2.81964 2.64079
Ow 11.4925 15.8042 7.8647
H 11.9711 16.2745 8.54722
H 12.0207 15.9236 7.07545
Ow 8.91074 23.9998 3.79396
H 9.68612 23.4401 3.8359
H 8.1754 23.3884 3.75368
Ow 3.80557 23.3376 10.2216
H 3.75986 22.5443 9.68728
H 4.74252 23.5068 10.3197
Ow 13.3297 7.69602 1.36111
H 14.096 7.12264 1.33832
H 13.4428 8.27794 0.609616
Ow 2.50018 14.7891 10.7703
H 3.07575 15.5496 10.8506
H 3.06711 14.0929 10.4385
Ow 3.00842 7.07131 15.9311
H 3.34761 6.17646 15.9126
H 3.64204 7.57866 15.4239
Ow 24.7387 2.82633 2.13809
H 24.0107 3.43277 2.00392
H 25.4236 3.13882 1.54686
Ow 22.6979 17.7354 17.648
H 23.6019 17.6086 17.9357
H 22.5195 18.6053 17.9304
Ow 12.722 3.61716 17.5907
H 13.3569 3.12371 18.1099
H 13.1823 3.81739 16.7757
Ow 24.7405 14.2286 25.808
H 24.3755 14.9122 0.955114
H 24.2799 13.4314 0.655554
Ow 5.85232 24.8722 2.11098
H 5.68353 24.6238 3.01977
H 6.5643 25.5097 2.16472
Ow 14.4063 8.63435 13.1049
H 15.176 8.06602 13.0857
H 14.5849 9.25693 13.8097
Ow 1.62063 6.9818 22.3877
H 0.935635 7.47974 21.9417
H 1.63256 7.33384 23.2777
Ow 15.1739 0.475545 22.4348
H 14.8824 0.468808 21.5232
H 15.9124 25.2816 22.4552
Ow 12.8831 9.29437 17.9834
H 13.0983 8.55248 17.4182
H 11.9419 9.42142 17.8648
Ow 4.72104 9.71388 19.1191
H 4.34164 10.002 19.9493
H 4.54183 10.4315 18.5115
Ow 4.31411 5.64091 4.13165
H 4.43391 4.69299 4.1882
H 5.12443 5.96196 3.73593
Ow 20.9016 23.5239 17.0771
H 21.3352 22.7692 16.9966
H 21.3677 24.0308 17.742
Ow 10.0631 19.0145 25.7523
H 9.26431 18.6969 25.3313
H 10.5167 18.2207 0.621213
Ow 21.9978 16.9881 0.549362
H 21.519 17.1038 1.37011
H 22.7448 17.5822 0.621437
Ow 17.4916 17.5341 8.57735
H 17.9375 16.7608 8.92276
H 18.18 18.0307 8.13515
Ow 2.82977 3.15829 11.4216
H 3.14915 2.29474 11.6829
H 1.92552 3.18456 11.7342
Ow 5.00464 13.0555 23.9953
H 5.90024 12.7188 24.0359
H 5.0106 13.6651 23.2574
Ow 23.3713 6.43716 10.6283
H 23.3408 6.96646 9.8314
H 23.2334 5.54006 10.3255
Ow 14.7575 16.6402 6.12355
H 15.3523 16.0049 6.5231
H 15.1194 16.7917 5.25048
Ow 4.45355 10.2479 24.1087
H 5.25316 10.7252 23.8867
H 4.54351 9.40702 23.6604
Ow 11.0444 20.6135 23.1111
H 10.7769 19.6987 23.1985
H 11.8111 20.5858 22.5387
Ow 14.0883 3.07441 22.951
H 14.8568 2.64686 22.5731
H 13.4385 3.06496 22.2483
Ow 9.61752 19.2479 13.1653
H 9.54465 19.075 14.1039
H 9.62746 20.2026 13.0972
Ow 18.7671 15.1741 8.90208
H 18.4819 14.9897 9.79697
H 19.7227 15.138 8.9425
Ow 11.8849 9.68584 20.7254
H 12.348 9.13427 21.3558
H 12.022 9.3288 19.9232
Ow 24.6392 15.6416 7.1115
H 25.3863 16.2399 7.11101
H 24.3201 15.6541 6.20898
Ow 17.616 18.6807 4.09417
H 17.3372 19.1372 3.30051
H 17.1753 19.145 4.80583
Ow 18.1389 2.09835 24.9385
H 18.2499 2.89568 24.4208
H 18.9768 1.64238 24.8595
Ow 24.5755 8.1072 21.7486
H 24.9319 8.62585 21.0273
H 24.1061 8.74099 22.2909
Ow 17.8104 17.131 0.481593
H 17.176 16.518 0.852874
H 18.4676 16.5733 25.48
Ow 24.6803 23.014 16.4159
H 25.6341 22.9916 16.3389
H 24.3939 23.5688 15.6904
Ow 13.7262 11.8723 18.63
H 14.5829 11.8782 18.2032
H 13.3176 11.0579 18.3367
Ow 3.34758 7.2825 18.8676
H 3.38467 7.09555 17.9296
H 3.71475 8.16242 18.9516
Ow 22.688 6.72128 17.6717
H 23.0798 6.44043 16.8443
H 21.8899 6.19865 17.7488
Ow 0.539759 10.4369 6.00137
H 25.2836 10.2261 6.65075
H 25.6544 11.2542 5.6036
Ow 24.6697 17.0208 14.0237
H 24.9665 17.8522 14.3932
H 25.4578 16.5815 13.931
Ow 24.0987 15.2745 2.73908
H 24.8432 14.8184 3.13117
H 23.3345 14.9203 3.19277
Ow 24.8253 12.0834 19.7187
H 25.2335 12.8722 19.3619
H 23.9608 12.0542 19.3089
Ow 19.6031 24.1002 2.93951
H 19.0533 24.3561 2.19852
H 18.9898 23.988 3.66576
Ow 22.8112 7.79335 5.10974
H 22.7235 7.39554 5.92546
H 23.7516 7.75286 4.93601
Ow 3.97308 12.8547 9.34553
H 4.77557 13.3764 9.34901
H 4.16731 12.1111 9.91601
Ow 0.595189 14.3425 18.5315
H 1.27314 14.5007 17.8746
H 0.944265 14.7291 19.3345
Ow 24.87 19.8513 24.7697
H 25.8202 19.9564 24.7217
H 24.5254 20.5014 24.1575
Ow 5.95592 2.53952 1.74678
H 5.34816 3.27365 1.66048
H 6.78963 2.94497 1.9849
Ow 2.97845 8.23874 1.65407
H 3.75014 7.72855 1.40851
H 3.33197 9.06701 1.97973
Ow 24.3914 1.93075 5.2646
H 24.427 2.87803 5.39714
H 25.2267 1.71498 4.84995
Ow 8.64239 11.5675 1.21953
H 8.10737 12.0733 0.608047
H 9.29961 11.1425 0.668544
Ow 3.00218 15.4969 6.12191
H 2.6646 16.173 6.70923
H 2.88266 15.8598 5.24433
Ow 1.33076 1.89405 16.5647
H 0.564259 1.50535 16.1433
H 1.86448 1.145 16.8298
Ow 7.41878 21.6691 3.4323
H 8.23358 21.1872 3.57384
H 6.7286 21.0238 3.58518
Ow 15.0981 0.992031 4.86288
H 15.304 25.4821 4.72543
H 15.8624 1.34311 5.3198
Ow 13.9895 15.2859 18.4401
H 13.8461 15.9126 17.731
H 14.7979 14.833 18.2002
Ow 13.8447 6.89167 4.82429
H 14.5761 7.48617 4.65779
H 14.1401 6.04681 4.4862
Ow 17.7476 11.4406 6.1623
H 17.9369 11.6104 5.32563
H 17.898 10.5013 6.26793
Ow 6.32466 17.4831 8.22998
H 6.5605 16.6837 7.75938
H 6.24041 18.148 7.5465
Ow 2.34617 2.60291 3.41757
H 1.83965 3.37549 3.16715
H 3.17025 2.95507 3.75499
Ow 5.65469 14.818 21.9152
H 4.82217 15.29 21.8972
H 6.27413 15.4385 22.299
Ow 20.7587 3.7691 20.3302
H 19.9695 3.23185 20.399
H 21.4498 3.15109 20.0921
Ow 19.8708 11.8152 8.62778
H 19.5605 11.4774 9.46784
H 19.6047 11.1533 7.98966
Ow 17.6885 2.71209 2.10741
H 17.8694 2.56737 1.17891
H 16.7343 2.67861 2.17431
Ow 25.2202 23.4663 1.53203
H 24.9648 22.5844 1.80223
H 0.533363 23.3302 0.925645
Ow 1.13417 8.14612 24.7617
H 25.7888 7.74782 25.1857
H 1.84508 8.03869 25.3935
Ow 15.2091 17.3593 24.6217
H 15.7462 17.672 23.8938
H 15.5936 16.5153 24.8583
Ow 21.392 11.8265 13.1174
H 21.6282 12.3152 13.9058
H 21.5427 10.9101 13.3489
Ow 13.2261 3.65515 6.33461
H 12.6592 3.5877 7.10288
H 14.109 3.7395 6.69441
Ow 10.9379 6.30197 16.9935
H 11.8352 6.07647 17.2388
H 10.3933 5.86805 17.6503
Ow 4.40389 6.82087 21.6671
H 4.94216 7.20435 22.3595
H 3.53925 7.21218 21.7908
Ow 20.579 10.0566 21.6642
H 21.033 9.69345 20.9038
H 20.6096 11.0041 21.5324
Ow 21.7405 14.0413 3.29356
H 21.6869 13.1321 3.58786
H 21.4586 14.0143 2.37896
Ow 24.5277 11.5229 1.34548
H 24.6731 10.7563 1.89977
H 25.1683 11.4338 0.639957
Ow 7.67419 7.56529 4.5564
H 8.25582 8.28131 4.30122
H 8.06779 7.20835 5.35254
Ow 17.3048 1.52937 6.89294
H 17.2118 1.74645 7.82051
H 18.2299 1.30649 6.79017
Ow 14.8308 5.43671 9.98671
H 14.0003 4.99918 10.1741
H 14.8565 5.50304 9.03171
Ow 7.64634 7.61464 16.7281
H 7.75197 8.50509 16.6596
H 7.15935 7.35639 15.9457
Ow 8.56531 11.617 10.7579
H 7.94942 11.8883 10.0773
H 8.23793 12.0307 11.5565
Ow 10.2077 10.1054 24.9907
H 9.74794 10.0025 24.1572
H 9.80931 9.45271 25.5664
Ow 13.6567 17.5194 21.5163
H 12.8597 17.4507 20.9906
H 13.923 16.6125 21.6678
Ow 9.69588 11.7343 19.3061
H 10.2831 11.5485 18.5734
H 10.1549 12.3996 19.8187
Ow 18.2291 8.51067 22.5556
H 17.5225 8.9736 22.1055
H 18.9408 9.14874 22.6054
Ow 11.1591 1.66588 4.33201
H 12.0423 2.02024 4.43507
H 10.9517 1.80324 3.40774
Ow 8.29647 24.2026 14.8171
H 7.5865 24.7244 14.4421
H 9.00847 24.8277 14.9526
Ow 2.80657 14.0778 16.532
H 3.02585 13.1701 16.7422
H 3.40996 14.5992 17.0613
Ow 20.0022 3.09792 15.9397
H 20.155 3.03031 14.9973
H 19.74 2.21617 16.2042
Ow 19.2998 9.09646 7.32685
H 19.6991 8.65339 8.07541
H 18.7128 8.4432 6.94641
Ow 15.0536 2.18775 2.4791
H 15.1335 1.63806 3.25921
H 15.231 1.59525 1.7486
Ow 5.23892 24.4971 4.62255
H 5.83624 24.0064 5.18694
H 5.37245 25.4121 4.86987
Ow 16.1813 4.14483 14.0537
H 16.681 4.57593 14.7469
H 15.276 4.16274 14.3638
Ow 10.2064 9.20855 17.837
H 9.44495 9.50377 17.3381
H 10.3917 8.33324 17.497
Ow 24.9159 11.7705 22.3903
H 25.0306 11.7439 21.4404
H 24.0417 11.4092 22.5366
Ow 1.57581 11.8594 8.42276
H 1.85057 10.9552 8.27079
H 2.33471 12.2753 8.83175
Ow 11.4507 17.5793 20.1064
H 11.326 17.0594 19.3124
H 10.5638 17.804 20.3878
Ow 14.8349 9.4863 7.58951
H 15.5032 9.91251 8.12617
H 14.5386 10.1693 6.98806
Ow 23.7675 24.8569 22.996
H 23.1563 25.5925 23.0452
H 24.439 25.1432 22.3771
Ow 15.908 15.5306 1.6673
H 15.7642 14.6405 1.98867
H 15.0329 15.9166 1.63002
Ow 13.2696 13.3016 14.7684
H 14.1079 13.7578 14.8406
H 12.8921 13.3529 15.6465
Ow 19.327 25.2689 20.1103
H 20.1919 25.1681 19.713
H 18.7133 25.0814 19.4
Ow 19.2297 6.26949 1.23619
H 18.5804 6.21533 1.93736
H 20.0616 6.40561 1.68952
Ow 22.6604 11.3737 18.2591
H 22.4667 10.5326 18.6727
H 23.0521 11.1417 17.4166
Ow 21.7014 23.8304 21.8191
H 22.4765 24.2183 22.2262
H 22.0513 23.2415 21.1506
Ow 0.536045 25.6081 21.5897
H 25.3658 25.7533 20.8462
H 1.37734 0.551633 21.3067
Ow 22.6423 23.8846 10.6749
H 22.1375 24.3616 11.3335
H 23.2697 23.3684 11.1809
Ow 8.81462 20.0326 7.64987
H 8.98304 19.1804 8.05168
H 8.0448 19.8904 7.09913
Ow 25.1858 13.8481 11.7408
H 24.6178 14.5829 11.5071
H 0.555291 13.971 11.206
Ow 4.5293 15.2178 18.5937
H 4.40283 16.1623 18.682
H 5.27581 15.13 18.0009
Ow 18.1388 10.902 10.6111
H 18.2394 11.3957 11.4249
H 18.1307 9.98523 10.8858
Ow 10.2474 1.33475 19.6752
H 10.347 1.28228 18.7247
H 10.9828 1.87501 19.9641
Ow 16.2389 16.8366 13.1739
H 17.1269 16.8347 13.5312
H 15.7784 17.5063 13.6799
Ow 16.9675 8.01771 6.31214
H 16.1784 8.45638 6.63004
H 17.2846 8.57789 5.60378
Ow 3.28672 25.5281 23.9234
H 2.55644 24.9634 24.1764
H 3.30033 0.800849 24.5893
Ow 4.09784 10.9337 1.97999
H 3.98261 11.3687 2.82468
H 5.0289 10.714 1.94816
Ow 13.6293 21.1702 10.774
H 13.8725 21.8919 11.3539
H 12.7029 21.3172 10.5835
Ow 9.3075 5.41689 25.3087
H 8.38701 5.57737 25.101
H 9.51136 4.58991 24.872
Ow 7.09831 23.5002 9.75159
H 7.75878 24.1427 9.49248
H 6.99672 23.6274 10.6948
Ow 9.27512 18.8801 3.48426
H 9.31245 18.4552 4.34114
H 8.9837 18.191 2.88723
Ow 10.773 21.4922 11.3541
H 10.3181 21.6593 12.1796
H 10.0852 21.2004 10.7558
Ow 20.9826 6.31087 21.2658
H 20.6984 5.4483 20.9634
H 20.2871 6.90506 20.984
Ow 8.44737 16.6343 17.0094
H 9.1512 16.4406 17.6284
H 7.92788 17.3124 17.4413
Ow 2.42609 4.67969 20.9045
H 1.88848 5.38265 21.2691
H 1.88171 4.29212 20.2193
Ow 21.2017 21.4654 25.4671
H 20.965 21.5458 0.97636
H 20.8453 20.6179 25.201
Ow 14.0983 11.2703 12.3123
H 13.4864 11.4181 13.0334
H 14.3488 10.3503 12.395
Ow 22.4138 1.69588 22.4926
H 22.3231 1.85716 21.5535
H 22.974 2.40628 22.8051
Ow 10.9876 22.0327 3.80235
H 10.8796 21.8109 4.72718
H 11.7399 22.6241 3.78368
Ow 15.6979 19.8588 9.54418
H 14.9443 20.295 9.94152
H 16.0201 20.4816 8.8925
Ow 16.1065 18.8905 17.374
H 15.3588 18.6859 16.8126
H 16.5929 19.559 16.8915
Ow 14.4262 10.0254 22.8807
H 13.988 10.814 22.5611
H 15.0551 9.80518 22.1937
Ow 21.0184 4.93816 13.9752
H 20.8348 5.10687 14.8999
H 21.3151 5.78077 13.6315
Ow 18.9306 21.14 13.4941
H 18.9945 20.4679 12.9313
H 18.6758 21.8618 12.9194
Ow 4.7308 24.0009 20.1497
H 4.10524 23.477 19.6494
H 4.488 24.9077 19.9629
Ow 1.90857 10.4156 11.424
H 2.53275 10.928 10.9098
H 1.08575 10.4843 10.9399
Ow 6.37347 5.8865 18.6018
H 6.61378 6.55717 17.9627
H 6.57663 5.05786 18.168
Ow 15.0611 22.4644 17.0283
H 15.7079 22.7064 16.3655
H 14.4558 21.8803 16.571
Ow 4.12855 6.40893 13.0302
H 4.038 7.36142 13.0035
H 3.40406 6.11437 13.5819
Ow 12.8369 19.2146 12.752
H 11.9006 19.2486 12.9477
H 12.9685 19.8932 12.09
Ow 14.4179 14.3766 24.3798
H 14.8149 13.5363 24.609
H 13.5783 14.3786 24.8394
Ow 11.191 6.11827 3.61385
H 11.9655 6.14436 4.17567
H 10.6322 5.44762 4.00645
Ow 5.75047 24.4616 23.5114
H 4.93504 24.9561 23.4303
H 6.39153 25.104 23.8154
Ow 6.232 17.5474 14.6197
H 5.88943 17.9613 15.4118
H 5.85154 16.6691 14.6241
Ow 3.96533 17.1516 10.4513
H 3.89065 17.804 9.75493
H 4.90771 17.0477 10.5828
Ow 3.34447 22.3073 3.56291
H 3.93022 22.872 4.067
H 3.43782 22.61 2.6597
Ow 23.8144 6.2526 15.2638
H 23.1475 6.6725 14.7205
H 23.8296 5.34331 14.965
Ow 12.1165 10.4941 14.6489
H 11.619 9.74713 14.3162
H 12.8077 10.1027 15.1831
Ow 22.9113 20.8796 4.26203
H 23.3195 20.6077 3.4401
H 23.5207 21.5177 4.63299
Ow 1.55197 5.38506 5.99522
H 1.68323 5.56913 6.92529
H 0.650751 5.06783 5.93819
Ow 12.3825 19.8132 15.9173
H 12.5874 19.6156 16.8311
H 11.5881 19.3112 15.7351
Ow 17.125 6.02104 21.8347
H 17.6532 6.81142 21.9471
H 16.6754 5.91121 22.6727
Ow 13.6874 20.8633 21.8702
H 14.2857 20.3406 21.3365
H 13.8259 21.763 21.5745
Ow 19.2637 22.5811 24.272
H 20.0248 22.2096 24.7187
H 18.809 23.0821 24.9491
Ow 15.9803 22.7571 19.5758
H 15.7771 22.576 18.6581
H 15.1257 22.8379 19.9993
Ow 10.898 13.8891 20.5671
H 10.2326 14.5741 20.5044
H 11.1771 13.9084 21.4825
Ow 25.4986 22.0015 22.7363
H 25.325 22.3432 21.8592
H 0.593652 21.2052 22.5871
Ow 19.4475 19.39 7.55655
H 20.1072 19.8397 7.02871
H 19.6839 19.5942 8.4613
Ow 12.0064 18.4176 4.76131
H 11.8829 17.4939 4.97933
H 11.3455 18.5968 4.09247
Ow 16.7685 23.8053 15.2463
H 17.1595 23.8242 14.4512
H 16.8113 24.7057 15.5681
Ow 14.6481 25.5176 16.4718
H 14.3904 24.614 16.6556
H 13.8572 0.511499 16.1213
Ow 21.1838 12.7905 21.6861
H 22.0899 12.8138 21.3785
H 21.1898 13.3113 22.4891
Ow 15.7735 0.738199 25.5209
H 15.4522 25.81 24.6871
H 16.3682 1.44701 25.2757
Ow 12.6601 6.57846 7.41847
H 13.3696 7.02753 6.95891
H 12.5353 5.76462 6.93038
Ow 22.3465 24.2137 25.5075
H 22.7904 24.2769 24.6615
H 22.1999 23.276 25.6316
Ow 6.53088 14.5345 17.0453
H 6.56626 13.6308 17.3587
H 7.36454 14.7946 16.8798
Ow 23.1245 3.96466 9.83126
H 22.3437 3.57309 10.2226
H 23.7742 3.38217 9.99671
Ow 0.83735 8.23964 19.5291
H 1.6755 7.77807 19.5044
H 25.6531 7.6759 19.0396
Ow 22.3372 13.6081 15.3581
H 23.1803 13.7096 15.7998
H 22.4093 14.1537 14.5749
Ow 15.9924 10.6327 1.6657
H 16.5275 9.89814 1.55477
H 15.5735 10.44 2.50445
Ow 3.20663 1.30857 1.05032
H 3.93738 0.731441 1.27176
H 3.05827 1.82303 1.84368
Ow 19.4649 18.9418 15.9262
H 19.7336 18.6793 16.8067
H 20.2801 19.1911 15.4909
Ow 13.3102 11.6893 2.20393
H 12.3806 11.8275 2.38533
H 13.3305 11.3261 1.3186
Ow 21.399 25.4401 12.6011
H 21.1671 24.8534 13.3215
H 20.8347 0.788989 12.7232
Ow 6.91177 15.5754 6.41519
H 7.48659 14.8103 6.39848
H 6.44969 15.5468 5.57745
Ow 21.8192 15.5478 19.6894
H 22.2313 16.1555 19.0759
H 21.3974 14.8934 19.1326
Ow 2.68238 23.2856 6.48667
H 3.4159 23.6007 6.8355
H 2.01586 23.471 7.14815
Ow 18.1008 14.4792 11.292
H 18.5982 13.7239 11.6053
H 17.1872 14.1951 11.3242
Ow 8.10496 23.9948 21.2405
H 8.05885 24.7848 21.7309
H 8.42887 24.3401 20.4086
Ow 8.24707 8.66907 9.38575
H 7.50792 8.97047 9.91389
H 8.98187 9.21334 9.66858
Ow 1.97938 16.4272 14.1161
H 2.21106 16.7845 14.9733
H 2.24634 17.1038 13.4939
Ow 10.7705 11.8641 16.6652
H 11.2392 11.6096 15.8704
H 11.182 12.6855 16.9339
Ow 22.2338 18.7581 14.8224
H 21.9892 19.1125 13.9672
H 22.5367 19.518 15.3193
Ow 3.91607 0.455194 12.0413
H 3.0293 25.5905 11.8127
H 4.34573 25.0732 12.3526
Ow 16.8361 21.2118 23.3044
H 16.6313 20.5097 22.7715
H 17.7441 21.3114 23.4121
Ow 13.4869 20.2826 1.92158
H 14.1353 20.9865 1.93273
H 13.8178 19.6415 2.55058
Ow 24.6044 5.29541 19.138
H 24.2339 5.20866 20.0164
H 23.9724 5.83513 18.6632
Ow 8.40527 21.1102 10.1355
H 7.91944 21.9279 10.0283
H 8.261 20.6362 9.31652
Ow 24.2104 1.14552 15.4168
H 23.9412 25.7245 15.0356
H 23.7907 1.16334 16.2768
Ow 10.5635 8.33605 13.5626
H 10.8104 7.45711 13.2751
H 9.60716 8.34133 13.5242
Ow 4.44778 15.3536 2.14884
H 5.10903 14.9774 2.72967
H 4.78657 16.2216 1.92997
Ow 17.546 16.0455 4.52032
H 17.061 15.797 3.73374
H 17.586 17.0012 4.48565
Ow 23.6919 21.9593 12.4199
H 24.6156 21.7175 12.3538
H 23.2175 21.1552 12.2087
Ow 18.0729 8.519 25.5313
H 18.0598 8.23126 24.6185
H 18.2469 7.72185 0.617027
Ow 13.6797 23.6332 12.6554
H 14.3339 24.2147 13.0428
H 13.2345 23.2393 13.4055
Ow 3.70923 20.7512 11.8611
H 4.22251 20.6014 12.655
H 4.33354 20.6313 11.1455
Ow 6.24793 14.2543 3.78131
H 7.15388 14.4223 3.71675
H 6.20681 13.7543 4.50824
Ow 14.1978 4.3823 3.90351
H 13.9513 3.94705 4.71958
H 14.4227 3.66707 3.3085
Ow 6.50683 19.8357 12.4967
H 7.34711 20.2033 12.223
H 6.72459 18.9698 12.8416
Ow 16.209 11.8249 8.81291
H 16.3577 11.538 9.67462
H 15.3231 11.9765 8.66019
Ow 4.46046 9.18018 14.8267
H 4.19726 9.08888 13.911
H 5.27793 9.67591 14.7935
Ow 0.864823 10.2754 17.8316
H 1.07498 9.67226 18.5446
H 25.7666 10.9027 18.2933
Ow 6.71353 16.3119 10.7391
H 6.60753 16.6678 9.8572
H 7.50838 16.7285 11.0721
Ow 15.211 0.477484 11.173
H 15.3084 1.40408 10.9528
H 15.1143 25.454 10.3269
Ow 2.20439 17.8403 16.7531
H 2.93049 17.649 17.3467
H 1.42128 17.7565 17.2971
Ow 7.02888 14.0493 0.574485
H 7.41469 13.8204 1.42003
H 6.08419 14.0117 0.723745
Ow 15.2617 5.6899 1.29238
H 14.504 5.16883 1.5596
H 15.9503 5.44697 1.91113
Ow 3.52262 17.7437 25.1783
H 3.4795 16.7952 25.0575
H 4.30697 18.0112 24.6994
Ow 6.34651 20.4019 6.16544
H 6.08409 20.2555 5.25667
H 5.52502 20.5633 6.62942
Ow 2.40801 13.873 0.876211
H 2.98028 14.6016 1.11678
H 1.63035 14.2908 0.506206
Ow 10.4681 21.8312 6.53938
H 11.1906 21.9568 7.15431
H 9.87535 21.227 6.98638
Ow 20.3268 25.0119 9.13787
H 20.9561 25.3762 9.76034
H 20.6144 24.1084 9.0069
Ow 23.3413 12.0116 10.6954
H 23.9462 12.6425 11.0855
H 22.5484 12.0787 11.2273
Ow 18.7673 22.0304 20.4662
H 19.5523 21.5045 20.3123
H 18.3078 22.0263 19.626
Ow 20.9311 10.1585 5.40255
H 20.526 9.57998 6.04864
H 21.4644 9.57692 4.86073
Ow 9.36489 17.504 8.47914
H 9.94057 16.7894 8.2071
H 9.38441 17.4162 9.36505
Ow 22.5372 4.83778 2.03227
H 22.4494 5.73252 2.36065
H 21.7612 4.38416 2.36137
Ow 1.75118 19.9851 22.0652
H 2.11612 20.488 21.3367
H 1.5389 19.1326 21.6852
Ow 3.03265 21.1131 19.405
H 3.85007 20.6642 19.1895
H 3.05557 21.9162 18.8849
Ow 17.4197 15.3029 21.9289
H 18.2502 15.696 22.1969
H 17.2753 14.5955 22.5573
Ow 13.8783 21.8308 24.4279
H 14.576 21.6765 25.0647
H 14.2017 21.4371 23.6176
Ow 20.0715 25.7653 23.6037
H 20.6738 25.3386 24.213
H 20.6402 0.813804 22.9888
Ow 7.01687 8.40978 19.8694
H 6.91304 7.51057 19.5582
H 6.2907 8.88771 19.4689
Ow 22.9708 21.7797 8.63519
H 22.3679 21.4065 7.99231
H 23.501 21.0379 8.9254
Ow 19.4201 11.0108 1.03464
H 19.3526 11.6677 25.7567
H 19.0283 10.2231 0.657868
Ow 17.6691 24.2014 1.01778
H 17.1635 23.3914 0.951424
H 17.0306 24.8966 0.859113
Ow 9.32898 17.159 11.4697
H 9.4378 18.034 11.8414
H 9.17461 16.5938 12.2266
Ow 24.8003 23.0624 20.144
H 24.5594 23.9886 20.1334
H 23.9927 22.6013 19.9172
Ow 6.91461 23.2089 6.469
H 6.89439 22.252 6.46986
H 6.90353 23.45 7.39522
Ow 1.0517 2.77013 23.716
H 1.56223 3.4113 24.2104
H 1.57646 2.59653 22.9346
Ow 9.65496 22.025 13.8043
H 10.4814 22.0679 14.2852
H 9.09469 22.6727 14.2318
Ow 21.0338 13.69 17.6924
H 21.2311 13.6806 16.7558
H 21.2193 12.798 17.9857
Ow 8.31292 1.05994 2.78588
H 8.74454 25.6227 2.84273
H 8.99368 1.65399 2.47037
Ow 23.5128 3.73834 14.2507
H 22.6046 3.96981 14.0564
H 23.4569 2.88306 14.6766
Ow 11.5805 3.33062 8.51825
H 10.6686 3.5061 8.28638
H 11.8241 4.05261 9.09754
Ow 12.9006 12.0084 21.8902
H 12.3127 11.386 21.4621
H 12.3573 12.435 22.5527
Ow 16.5781 1.35118 14.9354
H 16.4422 2.28613 14.782
H 15.7797 1.0619 15.3771
Ow 25.4972 19.5654 11.6894
H 0.935783 19.1413 11.7798
H 24.9414 19.1261 12.3329
Ow 6.81569 1.18729 18.0246
H 6.76111 1.63689 17.1814
H 5.90433 1.04526 18.2803
Ow 5.37198 1.55676 9.81489
H 5.02465 1.14606 10.6067
H 4.86529 1.16898 9.10147
Ow 10.6476 0.508556 23.3651
H 9.80277 0.521549 22.9147
H 11.2463 25.5154 22.7394
Ow 25.0722 23.7816 4.93307
H 24.5455 24.2923 4.31834
H 24.6656 23.9378 5.78506
Ow 2.5628 18.3976 12.4442
H 3.01208 17.8668 11.7865
H 2.84874 19.2934 12.2657
Ow 20.311 19.1006 24.8282
H 20.8132 18.2993 24.9759
H 19.4411 18.9063 25.177
Ow 16.7029 19.5248 1.5898
H 17.1618 18.8726 1.06051
H 15.8123 19.1838 1.67194
Ow 9.59469 4.09941 4.78436
H 8.68783 3.91955 4.53653
H 9.98257 3.23483 4.91928
Ow 17.3847 20.779 15.8366
H 18.1113 20.1566 15.8657
H 17.2675 20.9672 14.9055
Ow 20.7006 21.5454 2.79379
H 21.4366 21.5132 3.40496
H 20.2523 22.3657 3.00086
Ow 14.4094 18.0169 15.3846
H 13.788 17.3477 15.6715
H 13.8648 18.7781 15.182
Ow 12.8458 22.3024 7.88701
H 13.5414 22.7939 8.32468
H 13.2799 21.5179 7.55227
Ow 16.5293 12.071 20.4903
H 17.075 12.3855 21.2111
H 16.4008 11.1407 20.6748
Ow 25.7479 8.40127 4.12506
H 25.2909 8.75518 3.36174
H 25.8233 9.1434 4.72461
Ow 2.22775 20.0574 24.6288
H 2.17079 19.945 23.6799
H 2.61581 19.2413 24.9442
Ow 19.5264 8.15141 13.91
H 18.7293 7.68085 14.1536
H 19.3817 8.4142 13.0011
Ow 16.2919 18.301 22.2302
H 17.0207 18.2037 21.6174
H 15.5223 18.0252 21.7335
Ow 13.7283 4.51937 15.3239
H 13.7736 5.47398 15.2712
H 12.9987 4.28173 14.7519
Ow 8.06466 22.8673 25.5733
H 8.59454 22.9596 24.7817
H 8.5515 22.2485 0.702853
Ow 9.77881 24.7832 0.924249
H 10.6529 24.5992 0.580179
H 9.33066 24.0147 0.764731
Ow 17.0852 23.7974 22.1203
H 17.3764 23.4391 21.282
H 16.8889 23.0285 22.6551
Ow 23.8324 12.1092 4.6824
H 24.4502 12.4823 4.05364
H 23.3709 11.4296 4.19106
Ow 14.4472 15.0532 21.7694
H 15.4014 15.1241 21.7928
H 14.2094 14.7278 22.6375
Ow 2.25216 16.9084 4.0008
H 2.7119 17.735 3.85407
H 2.58237 16.3254 3.31724
Ow 3.18885 8.58528 5.18536
H 3.70632 9.34376 4.91494
H 2.77904 8.85504 6.00723
Ow 6.61093 22.9376 16.8283
H 5.75354 23.2446 16.5336
H 7.22372 23.2724 16.1737
Ow 11.2797 24.7198 5.66702
H 11.0584 25.4901 5.14373
H 11.903 24.2339 5.12709
Ow 3.3019 5.74647 10.1821
H 2.99802 5.78621 11.0889
H 3.47724 6.65782 9.94765
Ow 8.69376 15.5161 13.6219
H 9.60382 15.4558 13.9123
H 8.24719 15.9838 14.3276
Ow 16.4824 14.7092 6.64199
H 16.8956 15.1833 5.92038
H 15.7532 14.2412 6.23535
Ow 15.8711 6.41088 12.3973
H 15.9618 5.61749 12.925
H 15.1687 6.20907 11.7792
Ow 10.7716 6.27693 9.43102
H 10.7101 6.88663 10.1658
H 11.5118 6.59715 8.91477
Ow 20.5212 17.0821 5.46059
H 21.1972 17.7242 5.67705
H 19.7245 17.4271 5.86368
Ow 17.8202 8.28246 11.4238
H 17.2686 7.66073 11.8985
H 18.2047 7.76863 10.7137
Ow 5.13088 14.9701 14.3065
H 5.54506 14.8089 15.1542
H 5.8017 14.7394 13.664
Ow 20.6184 5.04575 17.7882
H 20.3004 4.33694 17.2291
H 20.5727 4.69093 18.6759
Ow 8.68075 15.3083 20.563
H 8.58287 16.2565 20.4766
H 7.8276 14.9551 20.311
Ow 10.8629 11.9579 2.73253
H 10.4122 12.0736 3.56892
H 10.1629 11.9671 2.07981
Ow 12.7425 1.7079 24.9324
H 13.2778 2.17928 24.2939
H 11.9524 1.46474 24.4503
Ow 3.70235 10.7782 21.4374
H 4.03625 11.5298 20.9477
H 3.96103 10.9482 22.3437
Ow 8.48927 0.863812 5.7002
H 7.55771 1.0681 5.77941
H 8.63078 0.747056 4.76078
Ow 16.1254 9.27341 20.9623
H 15.6749 8.43022 20.9144
H 16.7618 9.24638 20.2479
Ow 14.3448 2.68619 19.5302
H 14.3406 1.73675 19.6514
H 15.1481 2.86165 19.0404
Ow 3.99206 1.15305 19.1681
H 3.57522 1.55345 19.931
H 3.27583 0.722059 18.7019
Ow 1.32447 24.8413 11.7933