1689
Atoms. Timestep: 0
Ow 11.7162 8.12331 12.9316
H 12.2198 8.29188 13.728
H 10.9477 8.6886 13.0094
Ow 9.23553 14.2611 12.0018
H 8.3373 14.553 12.1576
H 9.14724 13.3481 11.7281
Ow 0.945605 2.02954 10.4551
H 1.7136 2.25964 10.978
H 0.906704 1.07385 10.4934
Ow 22.899 8.98967 7.20758
H 23.303 9.63572 6.62826
H 22.7405 9.46471 8.02334
Ow 13.4634 20.7559 22.927
H 12.8394 21.4793 22.9871
H 13.4223 20.3316 23.7841
Ow 21.5474 8.07195 3.15346
H 21.2558 8.31353 4.03252
H 22.3061 8.63235 2.98987
Ow 2.80287 19.7625 18.907
H 3.12787 18.8623 18.9217
H 2.30353 19.8241 18.0927
Ow 18.6142 15.3343 22.4537
H 17.9 15.9286 22.6837
H 18.4432 15.0944 21.543
Ow 10.4154 24.286 11.7485
H 11.0455 23.5837 11.9093
H 9.95797 24.3936 12.5824
Ow 20.6781 8.52968 5.885
H 20.0546 7.8849 6.21923
H 21.4741 8.38077 6.39526
Ow 15.7094 24.3444 5.40252
H 15.3244 24.8048 4.65685
H 14.9759 23.8745 5.7993
Ow 9.20626 14.7195 25.4187
H 8.81828 14.389 24.6085
H 8.92428 14.0987 0.679146
Ow 5.70179 24.2419 18.8007
H 4.99485 23.6221 18.621
H 5.25605 25.072 18.9698
Ow 6.68116 18.8674 6.54435
H 7.37359 18.2402 6.75218
H 6.31865 19.1153 7.39484
Ow 11.5353 18.0213 10.3002
H 11.8778 17.6315 9.49577
H 12.1095 17.6901 10.9907
Ow 24.1676 24.0784 12.4603
H 23.5733 24.6562 12.9391
H 23.6023 23.6054 11.8497
Ow 14.3421 20.4335 4.90029
H 14.9417 19.6897 4.843
H 13.5591 20.0786 5.32124
Ow 12.6203 5.2121 25.0647
H 12.1227 4.42543 24.8414
H 13.5357 4.95877 24.9458
Ow 22.7065 23.8651 6.01773
H 21.8556 23.9531 6.44722
H 22.8106 24.6777 5.52257
Ow 16.7492 1.44452 21.6919
H 17.2983 1.58205 22.4639
H 16.7432 2.2923 21.2476
Ow 4.05192 4.4816 5.04769
H 3.66975 4.08305 5.94537
H 4.00027 5.42298 5.21271
Ow 19.0206 21.4084 8.49498
H 18.5426 21.3881 7.66602
H 18.8881 22.2964 8.82679
Ow 14.6838 9.37217 23.198
H 14.5718 9.0029 22.3221
H 15.1258 10.2084 23.0512
Ow 3.76036 14.8229 21.4418
H 3.09378 14.7144 22.1201
H 3.45603 14.2771 20.7168
Ow 10.4605 4.851 12.0608
H 10.2224 4.30857 12.8126
H 9.62583 5.05885 11.641
Ow 15.9581 14.2752 12.2732
H 15.6834 14.069 11.3798
H 15.8814 15.2274 12.3341
Ow 22.3106 23.6306 19.9849
H 23.1121 23.0086 19.9387
H 22.8082 24.4301 20.3618
Ow 25.5101 3.19237 0.642212
H 25.1948 3.14196 1.54455
H 25.8919 4.0671 0.569896
Ow 6.41657 19.0916 2.04813
H 7.33464 19.3443 2.14564
H 6.36816 18.2131 2.42508
Ow 1.34937 9.73439 7.08444
H 1.44677 10.3385 6.34829
H 0.627044 9.1603 6.82987
Ow 0.974963 4.27417 22.645
H 0.999867 3.38413 22.9964
H 1.12768 4.83635 23.4045
Ow 7.12833 10.0903 16.4377
H 6.50715 10.4533 15.8064
H 6.60257 9.50399 16.9818
Ow 6.17102 9.59042 8.3744
H 5.25423 9.34681 8.24606
H 6.50345 8.95078 9.00407
Ow 21.9714 14.4532 18.0997
H 21.4059 15.2095 17.6651
H 22.8744 14.5829 17.8099
Ow 3.7694 16.8473 3.69639
H 3.21125 16.4377 3.0354
H 4.64182 16.4912 3.52783
Ow 14.7037 24.9223 16.1966
H 14.8258 25.4022 15.3775
H 15.1712 25.4414 16.851
Ow 25.548 11.4591 22.5598
H 25.9275 11.7423 23.3917
H 0.881205 11.4131 21.9599
Ow 22.8678 20.935 2.77212
H 22.3649 21.3544 3.4702
H 22.4007 21.1643 1.96872
Ow 14.8292 11.0667 8.65395
H 14.2533 11.4072 7.96942
H 14.3697 10.2992 8.99439
Ow 20.6365 5.94877 9.46622
H 21.4074 5.55719 9.05552
H 20.1814 6.39101 8.74977
Ow 22.4108 21.1858 17.7054
H 21.537 21.5629 17.8079
H 22.8809 21.8147 17.1579
Ow 4.77492 17.4485 21.7098
H 4.56266 16.5356 21.5153
H 5.32655 17.4055 22.491
Ow 22.5688 10.9462 9.03697
H 22.0749 10.9581 9.85689
H 23.246 11.6123 9.15515
Ow 24.1407 2.79831 6.02845
H 24.4672 2.8562 5.13057
H 24.9014 2.52959 6.54357
Ow 22.9713 1.85117 8.54102
H 23.2229 1.96307 7.62443
H 23.0633 2.72376 8.92352
Ow 23.9463 14.3063 3.22479
H 24.3967 15.0393 2.8053
H 24.5521 13.5704 3.137
Ow 18.483 9.00581 17.5962
H 18.0426 9.4705 18.3077
H 18.4515 8.08484 17.8553
Ow 19.984 22.4592 18.094
H 19.8475 22.6711 19.0175
H 19.696 23.2413 17.6233
Ow 17.6128 15.9376 4.44152
H 18.1411 16.423 3.80778
H 17.5172 15.0663 4.05685
Ow 10.6828 16.2642 6.39806
H 11.101 15.4041 6.35832
H 10.8797 16.6661 5.55194
Ow 17.6975 21.1085 13.0336
H 18.5944 21.441 13.0667
H 17.3617 21.408 12.1887
Ow 16.3321 18.4428 5.28693
H 16.5757 17.6182 4.86629
H 16.0338 18.1879 6.1599
Ow 24.1508 19.8469 13.3629
H 24.5169 20.5851 13.8501
H 23.2032 19.9429 13.4577
Ow 23.9261 18.9157 17.6579
H 23.7486 19.8551 17.6094
H 23.2825 18.5818 18.2828
Ow 21.5982 1.75753 2.13576
H 22.2838 2.42552 2.13244
H 21.6485 1.3578 1.26746
Ow 16.4842 9.05772 1.61625
H 16.2554 9.76186 2.22291
H 16.9569 9.49517 0.908166
Ow 14.5252 7.51913 25.6393
H 14.3703 7.90018 24.775
H 15.0032 8.19613 0.706791
Ow 3.38789 0.712544 9.13089
H 3.3128 1.48477 9.6914
H 2.81895 25.4729 9.54172
Ow 21.4664 22.0506 25.8269
H 22.2197 21.9297 25.2488
H 20.8422 21.3794 25.5511
Ow 17.8727 20.684 22.1075
H 18.0065 19.8746 22.6008
H 17.1579 21.1278 22.5639
Ow 9.83549 10.7118 16.391
H 8.98653 10.534 16.796
H 10.4204 10.0495 16.7592
Ow 4.8795 20.8474 20.7798
H 4.68218 21.7494 21.0323
H 4.05505 20.5107 20.4289
Ow 14.1643 20.9254 16.916
H 13.5921 20.445 16.3178
H 13.8503 21.8287 16.8749
Ow 4.78321 7.50865 20.3077
H 5.5717 7.10516 19.9447
H 4.23771 6.7697 20.5771
Ow 4.29184 14.0046 5.52004
H 3.38 14.119 5.78774
H 4.7474 14.7601 5.89126
Ow 25.4126 6.80515 8.14297
H 25.1826 7.62936 8.57186
H 25.6138 7.0523 7.24037
Ow 20.6907 16.8551 17.3002
H 19.8052 17.1402 17.5257
H 21.0399 17.5625 16.7581
Ow 18.8482 17.7477 7.56671
H 19.2985 18.3651 6.99017
H 17.9785 17.6483 7.17943
Ow 20.3309 17.2728 12.6469
H 19.5079 17.1619 13.1229
H 20.8737 16.5374 12.9313
Ow 16.7385 0.904677 18.412
H 17.4485 1.47522 18.1179
H 16.2671 1.42446 19.0629
Ow 6.60034 16.5461 2.73594
H 7.48324 16.2491 2.95622
H 6.50118 16.3365 1.8074
Ow 18.578 19.0303 19.9204
H 18.367 19.6658 20.6045
H 18.7213 19.5603 19.1364
Ow 1.07593 22.8932 17.5862
H 25.8603 22.6534 18.2685
H 0.940775 22.243 16.8968
Ow 2.79979 7.46475 15.4583
H 2.48157 6.58998 15.2353
H 3.27085 7.7551 14.6773
Ow 8.02431 17.3627 21.107
H 7.68238 18.1874 20.7618
H 8.77124 17.62 21.6474
Ow 1.96187 10.0664 25.6502
H 2.11143 10.1835 1.17704
H 1.693 10.9312 25.3402
Ow 1.30656 23.6098 12.5105
H 1.56448 22.766 12.1398
H 25.7062 23.7065 12.2514
Ow 25.8274 8.43092 15.1153
H 1.31762 8.13598 14.9876
H 25.4252 8.62311 14.2197
Ow 18.0972 18.9844 11.1683
H 18.1657 19.7072 11.7921
H 17.1914 19.0177 10.8607
Ow 20.5554 19.2139 6.15508
H 20.9876 18.6647 5.50091
H 21.0777 19.0976 6.94893
Ow 8.65138 23.3846 1.08635
H 9.52932 23.3654 0.705464
H 8.0769 23.6076 25.7652
Ow 20.8542 19.2594 15.97
H 21.0257 19.4662 15.0513
H 21.6221 19.5882 16.4373
Ow 23.3284 25.919 21.744
H 22.7523 25.544 22.4101
H 22.9119 1.33575 21.5052
Ow 25.7416 22.0523 14.6667
H 0.875911 22.595 14.0974
H 25.0871 22.6559 15.0182
Ow 22.4969 2.04621 16.6517
H 22.059 2.22948 15.7285
H 21.9041 2.46834 17.2735
Ow 14.5245 24.5232 9.33649
H 15.1051 24.1605 8.66739
H 14.1837 23.7576 9.79903
Ow 5.21269 25.1934 7.19639
H 4.66327 25.7272 7.77033
H 4.61337 24.5464 6.82426
Ow 14.8408 17.1483 17.3009
H 14.4825 16.7622 16.5017
H 14.8501 16.4286 17.9319
Ow 18.0526 7.07255 0.648116
H 18.4332 6.21998 0.859427
H 17.3193 7.1654 1.25631
Ow 18.4062 6.52029 18.5245
H 19.1884 6.37716 17.9917
H 17.7443 5.94714 18.1379
Ow 15.3032 25.3049 24.5279
H 14.4176 24.9451 24.5782
H 15.4464 25.7106 25.3829
Ow 4.38955 16.5435 9.04057
H 3.41405 16.4832 8.68834
H 4.9599 16.7761 8.3079
Ow 8.84043 11.646 25.261
H 7.9385 11.752 24.9584
H 9.3753 11.8185 24.4861
Ow 12.1857 7.43717 3.10914
H 12.831 6.86182 3.51989
H 12.5151 8.32118 3.27074
Ow 5.01486 4.29939 1.64912
H 4.29759 4.83207 1.99259
H 4.5829 3.54543 1.24764
Ow 1.26938 18.5547 25.882
H 25.8006 18.9306 25.8664
H 1.53523 18.528 24.9629
Ow 1.13036 15.98 2.21372
H 1.01749 15.3368 1.51382
H 1.15502 16.8238 1.76253
Ow 3.75601 8.64462 7.82923
H 2.93689 9.07658 7.58703
H 3.48875 7.77858 8.13709
Ow 13.425 5.53224 4.75679
H 12.9915 4.67885 4.75843
H 12.8959 6.07138 5.34461
Ow 21.5515 17.6593 3.75634
H 22.2471 17.6236 3.09979
H 21.5991 16.8139 4.20261
Ow 13.1181 22.0894 10.0156
H 12.5907 22.0546 9.21758
H 12.7154 21.4452 10.5978
Ow 18.3257 17.3062 14.7968
H 17.8861 18.1028 15.0941
H 18.8754 17.0455 15.5357
Ow 3.67698 20.4721 7.31532
H 4.45748 20.276 7.83373
H 3.48291 19.6552 6.85557
Ow 12.9792 6.81465 19.3841
H 13.3924 5.96209 19.5203
H 12.1888 6.78715 19.9233
Ow 17.1886 1.64979 5.37991
H 16.5647 0.925327 5.33461
H 16.6459 2.42524 5.52306
Ow 11.0235 5.79967 15.0854
H 11.0131 4.95062 14.6435
H 11.405 6.39927 14.4442
Ow 19.7941 15.1012 6.69819
H 19.9891 15.9475 7.10078
H 20.4693 14.9929 6.02852
Ow 7.75799 1.70717 13.1628
H 7.39228 1.46609 14.0138
H 8.70392 1.60939 13.2716
Ow 4.72503 21.1853 15.1262
H 3.89262 20.8153 14.8321
H 4.482 21.8089 15.8105
Ow 14.8897 14.7174 6.10908
H 14.4766 14.185 6.7888
H 14.2127 14.8203 5.44026
Ow 9.69039 7.51044 4.68345
H 9.52658 6.72986 5.21278
H 10.3529 7.23578 4.04947
Ow 13.4668 1.25176 6.47212
H 12.7782 0.702868 6.84718
H 13.8018 0.744735 5.73258
Ow 20.8084 12.5803 7.59654
H 21.5913 12.3145 8.0788
H 20.8914 13.5298 7.50872
Ow 25.9514 7.93474 23.0445
H 1.45419 8.16268 23.2137
H 25.618 7.63654 23.8907
Ow 2.63517 2.47644 3.43962
H 2.81928 2.6461 2.51575
H 2.92633 3.26832 3.89168
Ow 8.29674 2.95238 1.35014
H 9.18661 2.99858 1.69981
H 7.9027 2.20213 1.7953
Ow 22.2098 7.9734 10.7461
H 21.5956 8.61947 11.0949
H 21.6705 7.39846 10.203
Ow 0.860374 1.35915 23.2874
H 0.709873 0.70933 22.6009
H 0.832726 0.857992 24.1024
Ow 7.56512 6.9888 21.1075
H 8.18942 7.66147 20.8352
H 6.9789 7.43797 21.7165
Ow 7.05429 0.756219 2.51085
H 6.49191 0.648248 1.68429
H 6.2635 0.887825 3.16162
Ow 24.5776 13.3887 20.6796
H 24.9939 12.9697 21.4328
H 25.2911 13.8465 20.235
Ow 22.0073 8.2607 20.2133
H 22.3671 7.37627 20.2806
H 22.4763 8.76209 20.8802
Ow 15.8741 3.29365 10.8172
H 16.3157 2.6965 10.2134
H 15.2385 2.74447 11.2761
Ow 5.12858 11.1873 21.9612
H 5.30521 11.4603 22.8616
H 5.00445 10.2399 22.0177
Ow 9.84625 1.2792 22.9448
H 8.90333 1.17528 23.0725
H 10.2215 25.8617 23.2422
Ow 7.41095 19.7271 20.0018
H 7.34027 19.5485 19.0642
H 6.54408 20.0475 20.2512
Ow 18.1312 15.8848 10.5167
H 17.4948 16.243 11.1355
H 17.606 15.6075 9.65306
Ow 25.0137 17.3577 22.0992
H 24.8868 17.255 21.156
H 24.1288 17.4529 22.4514
Ow 18.6049 23.7695 23.6017
H 19.1751 24.2479 24.2036
H 19.0708 23.7857 22.7657
Ow 0.927064 5.83565 12.5481
H 0.557254 5.12281 12.0272
H 1.15722 5.42832 13.3831
Ow 9.80579 20.3324 10.5781
H 10.3323 19.5504 10.7436
H 9.93244 20.5143 9.64687
Ow 6.40703 8.73558 5.49073
H 6.31371 9.08707 4.60531
H 5.76634 8.02586 5.53596
Ow 9.86439 6.32231 1.13515
H 9.26156 6.21655 25.8104
H 9.42096 6.93428 1.72244
Ow 24.7847 18.2355 4.75504
H 25.1192 19.1303 4.81494
H 24.6224 18.102 3.82126
Ow 19.7824 23.9892 21.1147
H 19.9546 24.8758 20.7977
H 20.5922 23.51 20.939
Ow 16.6558 17.174 23.3827
H 16.1053 17.4906 22.6664
H 17.3088 17.8628 23.5059
Ow 19.7563 4.92486 1.01445
H 19.8835 4.66092 25.5145
H 19.4483 4.02576 1.4923
Ow 7.1712 6.43627 25.762
H 7.48412 7.34066 25.7835
H 7.3014 6.15874 24.8553
Ow 4.70809 4.36518 23.2089
H 4.24364 3.5442 23.3717
H 5.57189 4.09446 22.8978
Ow 6.40813 8.98205 23.2322
H 5.58874 8.51107 23.3839
H 6.28615 9.82354 23.6718
Ow 5.90644 20.2042 23.3603
H 5.3862 20.3213 22.5654
H 6.12126 19.2715 23.3714
Ow 3.11152 18.0306 6.03745
H 3.15624 17.6119 5.17786
H 3.32987 17.3333 6.65573
Ow 19.9189 1.1249 4.93013
H 19.0561 1.51646 5.06611
H 20.5212 1.86886 4.91977
Ow 10.4128 25.3681 3.14459
H 10.7425 0.696724 3.65442
H 10.4437 25.6695 2.2366
Ow 16.7922 11.3763 19.1861
H 17.3008 11.6543 19.9479
H 16.2212 12.1202 18.9943
Ow 25.8527 21.3784 2.36712
H 25.1386 20.783 2.13933
H 25.7812 22.0923 1.73343
Ow 20.0658 11.2153 13.8011
H 19.4843 10.9776 14.5233
H 20.8543 11.5499 14.2281
Ow 4.40924 11.7897 9.66578
H 4.85168 11.1925 9.06283
H 5.03112 12.6347 9.6153
Ow 17.5281 25.2354 14.1044
H 16.9215 25.8728 14.4811
H 16.879 24.4481 13.8317
Ow 11.669 12.6454 17.2953
H 11.5535 13.462 16.8094
H 11.1402 12.0056 16.8185
Ow 0.792435 10.6688 11.406
H 25.6044 10.0653 10.967
H 1.2178 11.1455 10.6932
Ow 19.8481 25.6518 25.1989
H 20.6653 25.506 24.7226
H 19.336 0.812769 24.6276
Ow 21.3306 19.6138 13.4082
H 20.8723 18.8535 13.0503
H 20.8307 20.3662 13.0916
Ow 21.2346 21.8956 4.68569
H 20.9569 21.1669 5.24078
H 21.6603 22.5066 5.28704
Ow 25.4903 3.82929 3.4137
H 1.00498 3.77048 3.17859
H 25.3877 4.71354 3.76554
Ow 6.40435 22.4211 2.60259
H 7.07755 21.9666 2.09654
H 6.02129 21.7418 3.1575
Ow 1.8409 4.6281 15.0084
H 2.64607 4.11897 14.915
H 1.13803 3.99193 14.876
Ow 8.39272 14.5924 3.71911
H 9.11217 13.9844 3.54886
H 7.60325 14.0559 3.64841
Ow 22.2042 17.5371 19.3914
H 21.6152 17.4848 18.6386
H 22.701 16.7193 19.3648
Ow 23.49 22.8529 15.913
H 22.7571 23.1768 15.3894
H 23.529 23.4457 16.6636
Ow 9.80036 8.57574 9.14563
H 10.5109 7.95418 9.304
H 9.7782 8.67761 8.19409
Ow 3.92554 23.5816 21.8445
H 4.5324 23.9178 22.5041
H 3.15873 23.3019 22.3443
Ow 16.9938 21.3291 6.43476
H 16.0382 21.3033 6.38581
H 17.227 22.2009 6.11571
Ow 6.5174 14.0983 21.1592
H 5.60938 14.009 21.4485
H 6.89472 14.7495 21.7507
Ow 5.34297 6.45567 14.4553
H 6.28548 6.6155 14.5044
H 5.00179 7.18818 13.942
Ow 8.43994 12.1386 10.5437
H 8.72699 11.4708 9.92083
H 7.70582 12.5725 10.1089
Ow 16.3544 1.75605 8.69105
H 15.6147 1.96437 8.12038
H 16.0999 0.942418 9.12645
Ow 10.9636 7.1563 21.1447
H 10.2422 7.76932 21.0039
H 11.3556 7.43313 21.973
Ow 8.70419 5.62462 18.4278
H 8.25825 6.0023 17.6697
H 8.1798 5.90356 19.1784
Ow 24.3084 4.41473 16.5924
H 23.9766 3.51841 16.6458
H 24.2295 4.64509 15.6667
Ow 17.3329 4.48208 12.9233
H 18.1977 4.56034 12.5206
H 16.774 4.13774 12.2266
Ow 3.47041 18.143 12.3553
H 3.96492 17.3395 12.1938
H 3.98839 18.8999 11.8145
Ow 9.73097 21.6286 13.0233
H 8.91273 21.167 13.2063
H 9.89716 21.4638 12.0952
Ow 2.10755 13.2877 14.7537
H 2.25964 14.1762 15.0756
H 2.43336 12.7203 15.4523
Ow 4.73202 15.0377 17.9547
H 4.81054 14.9676 17.0034
H 4.65792 15.9775 18.1208
Ow 12.438 20.3627 2.57119
H 13.3442 20.6645 2.63461
H 11.9167 21.1654 2.57733
Ow 23.6869 4.69071 22.5589
H 24.6316 4.66805 22.7108
H 23.3979 3.79081 22.71
Ow 24.7318 22.4488 19.7765
H 24.8674 21.5064 19.8753
H 25.1929 22.8369 20.5201
Ow 12.683 4.05612 8.20585
H 13.0338 3.25647 8.59786
H 11.8647 3.78156 7.79215
Ow 23.7641 12.2274 12.2323
H 23.5437 13.0068 11.7222
H 24.4574 11.7997 11.7296
Ow 22.5325 17.244 24.036
H 21.7399 17.5815 24.4533
H 22.8853 16.6146 24.6647
Ow 14.4587 22.6227 3.04649
H 14.4954 21.8946 3.66673
H 13.5177 23.0524 3.09079
Ow 15.4913 9.12812 11.7395
H 16.0877 9.86014 11.5826
H 15.7973 8.74065 12.5595
Ow 24.3333 13.0536 9.39554
H 23.6843 13.5995 9.8394
H 25.0261 13.6632 9.14119
Ow 3.01263 9.09384 23.3365
H 2.76912 9.62522 24.0945
H 3.6364 8.45501 23.6816
Ow 15.3281 20.2776 9.29347
H 15.2715 19.7467 10.088
H 14.7273 21.0065 9.44853
Ow 12.3064 4.2716 17.7614
H 12.9504 4.33547 18.4666
H 12.7826 4.5419 16.9762
Ow 22.5542 22.4604 10.9977
H 23.0887 21.6168 10.8152
H 22.0935 22.5379 10.1423
Ow 20.5173 11.1388 5.29109
H 20.3756 10.2361 5.57622
H 20.6731 11.6246 6.10103
Ow 24.738 8.90958 9.91036
H 24.7138 9.56617 9.21429
H 23.8206 8.67624 10.0522
Ow 15.6537 17.8442 7.91318
H 14.7209 17.8444 8.12776
H 15.9561 18.7193 8.15606
Ow 22.7122 8.61311 15.2762
H 23.2213 8.377 14.5008
H 23.2071 8.24647 16.0089
Ow 7.98341 3.8473 16.513
H 7.66431 4.13029 15.6561
H 7.33268 3.21312 16.814
Ow 14.1694 8.23732 9.03191
H 14.8174 8.3704 8.34016
H 14.614 8.51305 9.83347
Ow 19.1486 25.5049 11.6794
H 19.8364 0.748634 11.7981
H 18.7467 25.4196 12.5439
Ow 23.4284 6.20558 24.9288
H 22.8599 5.65108 25.4631
H 23.3755 5.82803 24.0508
Ow 19.5375 12.4792 17.8403
H 18.9041 11.7995 17.6102
H 19.5256 13.0804 17.0955
Ow 15.2772 11.0244 3.22669
H 15.2123 10.5645 4.06368
H 14.5922 11.6917 3.26584
Ow 12.2941 20.7345 12.3141
H 11.6244 20.5682 12.9774
H 12.8838 21.3685 12.7222
Ow 18.6883 14.291 1.68351
H 18.5504 13.3687 1.89896
H 19.5761 14.4785 1.98816
Ow 17.2581 14.6444 14.693
H 16.7898 14.225 13.9712
H 17.4814 15.5141 14.3611
Ow 9.47276 2.81437 19.7137
H 8.5987 3.20401 19.6919
H 9.338 1.9072 19.4397
Ow 5.1662 11.6365 6.55379
H 4.90276 12.4718 6.16772
H 4.74903 10.9749 6.00199
Ow 13.0878 11.0283 19.6994
H 13.3152 11.616 18.9789
H 12.1558 10.848 19.5771
Ow 9.57984 2.21094 4.79919
H 9.08273 2.6569 4.11347
H 8.96005 1.58776 5.17824
Ow 3.288 25.7502 20.3735
H 3.53813 25.1501 21.0761
H 4.11712 0.591132 19.967
Ow 10.9887 13.6272 19.8372
H 11.1589 13.2419 18.9776
H 10.0384 13.7385 19.8664
Ow 21.4214 13.7524 23.7653
H 22.2144 13.5848 24.2745
H 20.8691 12.9865 23.9222
Ow 3.93766 22.4529 1.42755
H 4.88246 22.4976 1.57444
H 3.58048 23.1779 1.9405
Ow 17.4187 14.7979 19.6879
H 17.7571 15.287 18.9379
H 16.489 15.023 19.7215
Ow 17.4931 4.03617 21.142
H 17.4777 4.39932 22.0275
H 18.4019 3.76692 21.0088
Ow 3.60151 23.1051 6.33085
H 2.7656 23.5303 6.52236
H 3.73127 22.4935 7.05565
Ow 11.3756 8.14985 23.7814
H 10.4438 8.15737 23.9998
H 11.643 9.06716 23.8386
Ow 11.2964 11.0704 23.9163
H 11.9543 11.53 23.3949
H 11.7317 10.8932 24.7502
Ow 10.6384 1.81892 16.8828
H 11.268 1.58368 17.5644
H 10.0652 1.05562 16.8118
Ow 6.02795 11.8189 24.7076
H 5.52136 12.6117 25.1233
H 5.71265 11.0365 25.4143
Ow 25.5297 6.70951 20.4719
H 24.9434 7.27022 19.9638
H 25.6934 7.20067 21.277
Ow 12.6672 23.179 17.0194
H 11.8504 23.2868 16.5323
H 13.2395 23.8691 16.6841
Ow 21.5869 14.156 10.7944
H 21.7167 14.4321 11.7017
H 20.681 13.8485 10.7644
Ow 16.5303 22.0332 19.1644
H 16.8354 21.509 19.905
H 16.4572 22.9216 19.5132
Ow 20.3861 11.935 20.5332
H 19.9921 11.1132 20.8258
H 20.0298 12.0727 19.6555
Ow 8.56881 15.3496 19.4115
H 9.14211 15.7167 18.7386
H 8.2272 16.1125 19.878
Ow 1.92792 17.9249 23.1877
H 1.16852 17.6293 22.6854
H 2.64539 17.366 22.8891
Ow 6.0707 12.9174 3.4984
H 5.2452 13.1603 3.91768
H 5.91024 13.0411 2.5629
Ow 11.0155 4.38326 21.8535
H 10.9995 4.60175 22.7853
H 10.7845 5.20023 21.4115
Ow 18.2569 4.0464 4.22902
H 17.33 4.16568 4.43643
H 18.683 3.9513 5.08094
Ow 20.4958 9.11231 25.5454
H 20.2164 9.99913 25.3181
H 20.3611 8.60555 24.7446
Ow 20.2739 8.24042 12.9164
H 19.502 8.04653 13.4481
H 20.7772 8.8623 13.4419
Ow 23.5362 2.45231 24.3568
H 24.3278 2.69047 24.8393
H 23.796 1.69661 23.6791
Ow 25.3622 17.4975 13.7521
H 24.891 16.6649 13.7798
H 24.6853 18.1506 13.5745
Ow 23.2298 11.2509 4.73728
H 22.2876 11.2733 4.90491
H 23.3079 10.8897 3.8543
Ow 13.3629 5.19668 12.1467
H 13.9539 5.32309 11.4044
H 12.4919 5.37741 11.7934
Ow 25.2964 0.897581 16.676
H 0.642218 0.65364 16.1437
H 24.5847 25.7601 16.3467
Ow 16.4926 3.2072 25.8173
H 15.9866 3.27959 1.21525
H 16.0217 3.75558 25.19
Ow 4.2224 7.07349 5.54548
H 3.52438 7.16798 4.89739
H 3.99927 7.70215 6.23195
Ow 17.5402 5.58854 23.3389
H 17.623 6.21735 22.6221
H 17.993 6.00175 24.0741
Ow 13.542 1.57405 22.9959
H 13.8862 2.42912 22.7379
H 14.2955 1.11346 23.365
Ow 6.05958 11.7755 19.3263
H 5.78008 11.6592 20.2343
H 6.90366 11.1937 19.1619
Ow 4.81942 1.05808 3.9575
H 4.4085 25.6072 4.0199
H 4.12647 1.63102 3.62912
Ow 4.47212 7.06268 24.4486
H 4.56197 6.13562 24.228
H 4.52235 7.08796 25.4042
Ow 5.05388 17.9677 14.7835
H 4.81609 18.2464 13.8992
H 4.89004 17.0246 14.79
Ow 15.0319 13.6682 9.59533
H 14.0982 13.6858 9.38532
H 15.321 12.7947 9.3313
Ow 15.0547 4.61797 24.0968
H 14.8621 4.27807 23.223
H 15.734 5.27696 23.9537
Ow 2.41423 11.0278 21.0646
H 3.08968 10.8668 21.7234
H 2.87077 11.4872 20.3599
Ow 7.28981 22.0045 17.5958
H 6.64607 22.6292 17.9298
H 7.74167 22.4764 16.8963
Ow 4.57166 17.5642 18.5254
H 4.86101 17.8965 19.3751
H 4.69899 18.2984 17.9246
Ow 24.1107 7.51756 17.1482
H 24.0087 6.59117 16.93
H 24.8557 7.80755 16.6218
Ow 19.2414 1.92011 16.896
H 18.9051 2.69856 16.452
H 20.0754 2.20034 17.2731
Ow 23.1102 17.0593 6.57798
H 23.9407 16.5576 6.86855
H 23.5748 17.62 5.854
Ow 11.4892 16.8023 1.77667
H 11.0489 15.9569 1.68936
H 11.1842 17.3106 1.02524
Ow 6.37736 13.7488 9.31574
H 6.60083 14.6786 9.35773
H 6.19532 13.5873 8.38994
Ow 23.971 9.93608 2.33923
H 24.7618 9.4983 2.65419
H 23.9505 9.74854 1.40082
Ow 22.706 5.79774 3.87431
H 22.3216 6.66706 3.76085
H 23.6491 5.94021 3.79498
Ow 10.0384 20.6015 7.98896
H 10.7638 21.1964 7.79897
H 9.28335 20.997 7.55344
Ow 3.86858 22.3453 17.3673
H 4.03689 21.5014 17.7865
H 2.93736 22.5069 17.5183
Ow 18.7072 8.90679 10.2749
H 19.1709 9.02673 11.1037
H 18.5372 9.79606 9.96416
Ow 18.0131 20.7634 3.83406
H 17.6868 20.5463 4.70732
H 18.3793 19.9429 3.50391
Ow 15.3831 22.6865 25.9175
H 15.108 23.5503 25.6104
H 15.0207 22.6192 1.38946
Ow 25.771 24.6346 21.732
H 0.72429 25.1009 20.9799
H 24.8456 24.8794 21.7406
Ow 23.4518 12.1457 25.3843
H 24.145 12.3648 0.59552
H 23.8128 11.4262 24.8665
Ow 1.0804 25.4783 4.04891
H 1.38229 0.975236 4.0348
H 25.8518 25.427 3.33892
Ow 2.97218 6.04657 2.31162
H 3.35139 6.82227 1.89824
H 2.72956 6.3376 3.1907
Ow 13.3977 1.58402 9.64347
H 13.5748 0.669467 9.42333
H 13.5974 1.64903 10.5773
Ow 18.7565 20.1803 17.425
H 19.1764 21.0355 17.5168
H 19.3771 19.6621 16.9126
Ow 23.0524 24.8252 17.4911
H 22.7879 25.7451 17.4851
H 22.6545 24.4662 18.2842
Ow 13.9294 11.3686 12.3173
H 14.3995 10.5392 12.2312
H 14.3104 11.9314 11.6432
Ow 16.6366 9.14545 14.3007
H 17.0573 9.99018 14.4611
H 17.3515 8.51015 14.3395
Ow 11.4427 2.78155 24.3816
H 10.677 2.48174 23.8918
H 12.179 2.31633 23.9844
Ow 8.12455 8.20444 2.65931
H 8.51884 7.88748 3.4719
H 7.34488 8.68267 2.94149
Ow 21.0211 5.21755 12.5286
H 20.6926 5.12872 11.634
H 20.9936 6.1585 12.702
Ow 21.4701 16.459 9.41477
H 22.0133 16.3532 8.6338
H 21.5413 15.6211 9.87202
Ow 1.08055 1.97238 7.54847
H 1.02646 2.24241 8.46512
H 1.8568 2.42004 7.21181
Ow 6.60925 2.80425 10.1579
H 6.36843 2.53117 9.27261
H 6.73603 1.98454 10.6357
Ow 5.53349 11.6052 14.3009
H 5.27605 12.477 14.6006
H 4.85936 11.3606 13.6668
Ow 5.56695 20.522 4.30706
H 5.92616 19.8764 3.69847
H 5.79723 20.1885 5.17422
Ow 6.91175 15.1234 12.9133
H 7.2423 15.953 13.2579
H 6.18001 15.3725 12.3488
Ow 7.67823 25.762 5.79474
H 6.82906 25.3218 5.83196
H 7.93809 25.86 6.71076
Ow 18.2594 10.9861 15.6199
H 18.2202 10.1695 16.1177
H 17.3413 11.3941 15.6855
Ow 12.0318 9.73303 1.49816
H 12.6292 10.3855 1.13241
H 11.2482 10.2301 1.73289
Ow 17.7628 24.6553 2.37196
H 18.127 23.9877 1.79069
H 16.9552 24.9346 1.94048
Ow 2.12999 20.7157 22.6778
H 2.1361 21.0659 23.5686
H 2.01717 19.7721 22.7918
Ow 6.42289 1.06061 15.3234
H 5.75975 25.8029 15.4931
H 6.62693 1.42062 16.1865
Ow 18.4689 6.67473 3.59243
H 18.0509 7.20799 4.37365
H 18.8054 5.86878 3.98419
Ow 16.785 22.4213 10.7551
H 16.536 21.6463 10.2515
H 17.5222 22.7948 10.2721
Ow 24.7953 20.3128 22.8868
H 25.6744 20.6915 22.8869
H 24.8556 19.5663 22.2907
Ow 20.8745 3.46618 23.6263
H 21.6654 3.24028 24.1159
H 21.1701 4.09887 22.9716
Ow 17.9167 12.3734 7.63439
H 17.6344 11.6145 7.12397
H 18.8716 12.3652 7.56854
Ow 7.27796 4.47296 13.8511
H 7.94209 4.95018 13.3536
H 7.40699 3.55668 13.6061
Ow 11.8934 16.7164 20.8965
H 11.9361 16.3634 20.0078
H 12.1628 17.6303 20.8049
Ow 12.2738 23.0497 19.7307
H 11.4723 22.5361 19.8308
H 12.4794 22.9942 18.7975
Ow 12.1933 13.5761 9.36651
H 12.0865 13.9389 10.2457
H 11.9781 12.6483 9.46195
Ow 13.4334 14.7655 3.69531
H 13.7731 14.0921 3.1059
H 13.7292 15.5913 3.31229
Ow 1.38095 24.8342 6.57199
H 1.06121 25.0972 5.70895
H 1.59305 25.6581 7.0107
Ow 22.2428 11.3457 15.5685
H 22.4264 10.411 15.4743
H 23.102 11.765 15.5217
Ow 1.10311 3.82952 18.1508
H 1.84856 3.81603 17.5505
H 25.7702 4.08045 17.6037
Ow 11.6684 6.74466 10.1424
H 11.1111 6.00505 10.3844
H 11.8347 7.20001 10.9678
Ow 20.2541 22.1372 12.4829
H 20.5747 22.7553 13.1398
H 20.8954 22.1864 11.774
Ow 11.8259 0.590638 19.1537
H 12.4318 1.17593 19.6083
H 12.1459 25.1224 19.3542
Ow 3.1282 6.40883 11.1309
H 3.70769 5.69424 11.395
H 2.29794 6.2184 11.5675
Ow 17.4245 12.592 4.43323
H 17.8977 11.8383 4.78596
H 16.7314 12.2097 3.89514
Ow 21.8598 14.0746 1.5786
H 22.0111 13.227 1.16052
H 22.5563 14.1478 2.23128
Ow 22.3994 4.49548 1.58733
H 22.5144 5.08172 2.3353
H 21.4597 4.51802 1.40698
Ow 6.79159 3.85215 4.46674
H 5.86362 3.80423 4.69653
H 7.24996 3.78666 5.30449
Ow 0.791879 0.753885 19.5166
H 25.9329 0.705617 18.5998
H 1.74753 0.796942 19.4832
Ow 10.9703 13.3164 2.84241
H 11.4026 12.6008 3.30846
H 11.4165 14.1061 3.14821
Ow 6.47861 7.34129 17.4556
H 7.04665 7.42352 16.6896
H 5.95444 6.55923 17.2829
Ow 23.5853 17.7996 2.07174
H 23.8533 17.056 1.53194
H 23.8004 18.5689 1.54424
Ow 19.6552 13.6765 15.5187
H 19.3474 12.7961 15.3036
H 18.9747 14.2582 15.1799
Ow 13.1387 22.8194 13.9731
H 13.2414 23.7273 13.6878
H 12.2837 22.7982 14.403
Ow 13.6627 20.1163 25.6253
H 14.5816 20.2813 25.8366
H 13.2123 20.1518 1.05773
Ow 25.9263 2.19521 14.2879
H 25.9329 1.5106 13.6189
H 25.6576 1.74544 15.0889
Ow 16.3905 19.8883 1.93142
H 17.0684 19.4 1.46441
H 16.8558 20.319 2.64855
Ow 13.7824 8.46748 15.1732
H 13.7192 9.31212 15.6191
H 14.6903 8.42164 14.8735
Ow 10.8643 2.11691 10.6607
H 11.7804 1.89118 10.4993
H 10.8807 3.0505 10.8713
Ow 12.2727 3.04134 4.62197
H 12.8722 2.74236 5.30554
H 11.4065 2.99955 5.02732
Ow 9.95757 21.5901 18.5094
H 9.03632 21.7245 18.287
H 10.3788 21.387 17.6743
Ow 21.3265 23.7728 14.4885
H 21.6705 24.5488 14.0461
H 20.6653 24.1134 15.091
Ow 14.6376 15.6283 14.9189
H 15.5565 15.4789 14.6962
H 14.2711 14.7506 15.0268
Ow 17.1023 7.02055 9.02681
H 16.5606 7.71447 8.50406
H 17.6726 7.71329 9.53128
Ow 23.447 17.6633 10.9058
H 23.837 16.8257 11.1558
H 22.6603 17.4249 10.4153
Ow 18.0727 11.6994 1.01871
H 17.178 11.8623 0.720303
H 18.6251 12.0077 25.7117
Ow 10.2282 3.04699 14.0104
H 9.97554 2.69787 14.865
H 11.1317 2.58923 13.7328
Ow 2.75129 6.18212 8.51292
H 1.82761 6.42884 8.55941
H 3.03487 6.13527 9.49524
Ow 18.1987 23.6808 5.80834
H 18.7234 24.2924 6.32492
H 17.3951 24.1617 5.61052
Ow 19.1928 1.71249 8.45977
H 19.3482 2.07493 9.33195
H 18.2558 1.51796 8.44414
Ow 13.5606 17.4435 24.6718
H 13.7073 18.2826 25.1083
H 12.6279 17.268 24.7963
Ow 14.9623 18.2294 21.6694
H 14.1913 18.7228 21.949
H 15.2234 18.6391 20.8446
Ow 19.6125 3.53537 10.6112
H 20.2049 3.9576 9.98918
H 20.1916 3.08637 11.2271
Ow 9.14149 22.4495 4.30312
H 10.0151 22.6083 4.66065
H 8.61099 22.0764 5.14208
Ow 19.4604 3.938 6.65198
H 19.3906 3.24177 7.30506
H 20.3665 3.89079 6.34701
Ow 7.36478 8.29535 10.3611
H 7.40206 9.02029 10.985
H 8.25 8.24299 10.0009
Ow 3.14186 2.1909 12.0795
H 3.60456 1.5916 12.6651
H 3.70289 2.96524 12.0364
Ow 1.94794 13.8204 11.7662
H 2.02167 13.3098 10.96
H 2.13512 13.1937 12.4651
Ow 21.1726 9.42145 17.7323
H 20.2545 9.19351 17.8784
H 21.6443 8.98346 18.4408
Ow 16.4796 3.25215 15.2453
H 15.7713 2.66583 14.979
H 16.9557 3.43642 14.4356
Ow 3.1459 5.1871 20.712
H 3.61942 4.55506 20.1712
H 3.31607 4.90814 21.6117
Ow 11.582 10.8383 10.1121
H 11.9473 10.6347 10.9732
H 11.2164 10.009 9.80433
Ow 22.0174 15.1229 5.13918
H 22.5457 15.7588 5.62167
H 22.6194 14.7502 4.49503
Ow 7.95257 5.59432 23.2977
H 7.90603 5.98968 22.4271
H 7.87132 4.65392 23.1389
Ow 22.0507 24.9302 23.9937
H 22.6024 24.7726 24.8637
H 22.0991 23.9735 23.6804
Ow 20.6782 25.0401 7.18393
H 20.3608 25.5199 6.41888
H 20.9781 25.7205 7.78671
Ow 5.42839 19.8983 17.453
H 5.10393 20.1225 16.5808
H 6.18736 20.4674 17.5804
Ow 15.7459 22.2256 23.2244
H 15.7869 22.2197 24.1808
H 14.9018 21.8244 23.0179
Ow 11.6845 14.9203 24.2797
H 10.8659 14.8559 24.7717
H 12.3116 14.4067 24.7888
Ow 9.32702 14.5612 14.6682
H 10.2464 14.6277 14.9267
H 9.35335 14.4235 13.7213
Ow 12.4157 19.6163 20.4008
H 12.7259 20.1575 21.1268
H 13.1727 19.5368 19.8202
Ow 9.34528 9.25419 14.11
H 9.46724 9.84189 14.8556
H 8.63446 9.65031 13.606
Ow 7.37594 3.08705 22.273
H 7.27759 2.95595 21.33
H 7.4373 2.20232 22.6331
Ow 21.6696 10.7042 11.5674
H 22.3681 11.3355 11.7399
H 21.0477 10.8327 12.2836
Ow 9.78797 9.55559 6.67455
H 10.3763 10.3106 6.66725
H 9.77478 9.25285 5.76658
Ow 7.54957 13.4195 16.8339
H 8.18176 13.7234 16.1828
H 7.78106 12.5029 16.9835
Ow 23.1042 9.00076 25.1107
H 23.1932 8.0541 25.2209
H 22.162 9.16095 25.1627
Ow 1.75169 11.9575 9.11552
H 2.6961 11.8082 9.07066
H 1.64702 12.8905 8.92909
Ow 0.866308 5.83529 25.117
H 25.3663 6.12777 25.1099
H 1.29377 6.39766 25.7629
Ow 20.0033 11.2789 23.8292
H 19.1863 11.0125 23.4077
H 20.689 10.9948 23.2248
Ow 25.9173 10.3859 17.7322
H 0.800643 9.62846 18.2379
H 25.8281 10.0572 16.8377
Ow 8.15176 14.8172 6.8761
H 8.63891 14.9926 6.07104
H 8.81831 14.809 7.56302
Ow 24.6238 22.0465 6.9234
H 24.1683 22.7881 6.5249
H 25.3489 21.8615 6.3267
Ow 10.3162 18.6394 22.1619
H 11.015 18.1076 21.7811
H 10.4029 18.5092 23.1063
Ow 14.2967 5.45868 16.1873
H 15.0519 5.18926 16.7101
H 14.61 5.43483 15.2831
Ow 17.1873 24.2887 20.3541
H 18.12 24.2724 20.5689
H 17.0858 25.05 19.7829
Ow 12.1266 15.1444 11.5479
H 12.7655 15.8465 11.6699
H 12.2368 14.5837 12.3159
Ow 20.5937 17.9744 21.558
H 19.7047 18.17 21.2624
H 21.0833 17.8083 20.7524
Ow 14.4493 16.9019 2.42446
H 13.5093 17.082 2.43976
H 14.843 17.6418 2.88669
Ow 2.99808 19.747 3.55151
H 3.7634 20.2943 3.72743
H 3.3056 18.8517 3.69329
Ow 7.51483 25.6385 10.9945
H 7.52493 0.748241 11.7974
H 7.48304 24.7311 11.2977
Ow 23.9525 7.8818 13.0337
H 23.2692 7.95589 12.3676
H 24.759 7.7465 12.5362
Ow 4.54539 15.7793 11.7575
H 3.69034 15.3722 11.897
H 4.52361 16.0779 10.8484
Ow 19.2891 24.5949 16.4334
H 19.1764 25.5207 16.6487
H 18.6278 24.422 15.7634
Ow 1.40987 13.8386 3.877
H 1.51559 14.0543 4.80362
H 1.40935 14.686 3.43182
Ow 18.457 6.8877 14.7702
H 19.081 7.01702 15.4844
H 18.2111 5.96458 14.8308
Ow 21.6851 3.37349 4.97999
H 22.0087 4.11284 4.46523
H 22.3927 3.18136 5.59518
Ow 3.07665 13.5127 19.2959
H 3.62439 14.0521 18.7255
H 2.12979 13.8329 19.1404
Ow 5.38564 14.394 15.0863
H 5.78963 14.6595 14.2603
H 6.11186 14.0575 15.6114
Ow 7.42237 10.2703 12.4645
H 6.89368 10.851 13.0117
H 7.82988 10.8512 11.822
Ow 5.31769 13.8338 1.03616
H 5.6002 14.7101 0.774441
H 4.34661 13.7851 0.625701
Ow 14.9018 5.63749 9.84098
H 15.6863 6.17999 9.76021
H 15.2359 4.75363 9.99386
Ow 14.1255 24.4445 21.3094
H 13.4471 25.0315 21.6432
H 13.6466 23.7852 20.8071
Ow 21.4299 14.8278 13.6323
H 20.842 14.522 14.323
H 22.1434 15.2624 14.0996
Ow 1.27199 17.8037 10.085
H 0.932801 18.3917 9.41011
H 1.95514 17.2996 9.64289
Ow 15.7132 23.5632 13.2668
H 14.9375 23.1022 13.5864
H 15.8432 23.2277 12.3798
Ow 9.90437 0.985692 7.84966
H 10.337 1.82951 7.7194
H 10.5083 25.757 7.47303
Ow 10.3299 20.1108 16.1447
H 11.2032 19.9709 15.7788
H 9.76958 20.2514 15.3815
Ow 24.0115 19.2805 25.1681
H 24.3955 19.7288 24.4146
H 23.5618 18.5232 24.7932