created by fftool

1689 atoms
1135 bonds
662 angles
6 atom types
3 bond types
2 angle types
0.000000 26.399741 xlo xhi
0.000000 26.399741 ylo yhi
0.000000 26.399741 zlo zhi

Atoms

      1       1    1  -1.112800  1.183440e+01  7.343887e+00  2.481506e+01  # Ow water
      2       1    2   0.556400  1.128423e+01  7.546419e+00  2.405840e+01  # Hw water
      3       1    2   0.556400  1.232552e+01  6.565161e+00  2.455312e+01  # Hw water
      4       2    1  -1.112800  1.934120e+01  2.010040e+00  1.606641e+01  # Ow water
      5       2    2   0.556400  1.987832e+01  1.499433e+00  1.667222e+01  # Hw water
      6       2    2   0.556400  1.877319e+01  2.533334e+00  1.663188e+01  # Hw water
      7       3    1  -1.112800  1.496651e+00  8.291903e+00  8.523380e+00  # Ow water
      8       3    2   0.556400  1.588982e+00  7.500539e+00  9.053897e+00  # Hw water
      9       3    2   0.556400  2.367677e+00  8.688750e+00  8.530751e+00  # Hw water
     10       4    1  -1.112800  1.979250e+01  8.528723e+00  2.174675e+01  # Ow water
     11       4    2   0.556400  2.050976e+01  8.253318e+00  2.117585e+01  # Hw water
     12       4    2   0.556400  1.909521e+01  8.791897e+00  2.114612e+01  # Hw water
     13       5    1  -1.112800  9.170651e+00  5.766082e+00  1.826113e+01  # Ow water
     14       5    2   0.556400  9.256760e+00  4.930467e+00  1.872000e+01  # Hw water
     15       5    2   0.556400  1.007069e+01  6.025419e+00  1.806388e+01  # Hw water
     16       6    1  -1.112800  9.365821e+00  6.777948e+00  6.585190e+00  # Ow water
     17       6    2   0.556400  9.494119e+00  7.597911e+00  7.062086e+00  # Hw water
     18       6    2   0.556400  1.020303e+01  6.620707e+00  6.148621e+00  # Hw water
     19       7    1  -1.112800  2.483142e+01  7.375245e+00  8.464011e+00  # Ow water
     20       7    2   0.556400  2.490078e+01  6.438700e+00  8.278809e+00  # Hw water
     21       7    2   0.556400  2.397044e+01  7.623351e+00  8.127278e+00  # Hw water
     22       8    1  -1.112800  3.388422e+00  2.420010e+01  1.558300e+01  # Ow water
     23       8    2   0.556400  3.097592e+00  2.388448e+01  1.472741e+01  # Hw water
     24       8    2   0.556400  2.773140e+00  2.489971e+01  1.580255e+01  # Hw water
     25       9    1  -1.112800  1.247426e+01  7.621910e+00  6.558537e+00  # Ow water
     26       9    2   0.556400  1.194848e+01  8.037551e+00  7.241933e+00  # Hw water
     27       9    2   0.556400  1.328497e+01  7.368833e+00  7.000045e+00  # Hw water
     28      10    1  -1.112800  2.036607e+00  1.241691e+01  4.694261e+00  # Ow water
     29      10    2   0.556400  1.499736e+00  1.278737e+01  3.993721e+00  # Hw water
     30      10    2   0.556400  2.839559e+00  1.213356e+01  4.256982e+00  # Hw water
     31      11    1  -1.112800  6.706565e+00  1.045899e+01  1.875552e+01  # Ow water
     32      11    2   0.556400  6.939865e+00  1.080834e+01  1.961561e+01  # Hw water
     33      11    2   0.556400  5.848857e+00  1.005440e+01  1.888542e+01  # Hw water
     34      12    1  -1.112800  2.180891e+01  2.162181e+01  4.331013e+00  # Ow water
     35      12    2   0.556400  2.239800e+01  2.184932e+01  3.611676e+00  # Hw water
     36      12    2   0.556400  2.095711e+01  2.149580e+01  3.912941e+00  # Hw water
     37      13    1  -1.112800  2.489973e+01  9.605775e+00  2.406114e+01  # Ow water
     38      13    2   0.556400  2.486078e+01  8.799606e+00  2.354655e+01  # Hw water
     39      13    2   0.556400  2.489976e+01  1.030677e+01  2.340935e+01  # Hw water
     40      14    1  -1.112800  2.019624e+01  8.866386e+00  1.236433e+01  # Ow water
     41      14    2   0.556400  2.045769e+01  9.486051e+00  1.168324e+01  # Hw water
     42      14    2   0.556400  1.931679e+01  9.146053e+00  1.261845e+01  # Hw water
     43      15    1  -1.112800  9.794505e+00  3.196429e+00  1.264530e+01  # Ow water
     44      15    2   0.556400  9.769631e+00  2.241236e+00  1.270202e+01  # Hw water
     45      15    2   0.556400  8.941430e+00  3.478723e+00  1.297515e+01  # Hw water
     46      16    1  -1.112800  1.778854e+01  7.897886e+00  2.085652e+00  # Ow water
     47      16    2   0.556400  1.748804e+01  8.589891e+00  1.496540e+00  # Hw water
     48      16    2   0.556400  1.809299e+01  7.202130e+00  1.503017e+00  # Hw water
     49      17    1  -1.112800  1.503012e+00  2.432641e+01  1.863751e+01  # Ow water
     50      17    2   0.556400  1.521453e+00  2.489971e+01  1.940381e+01  # Hw water
     51      17    2   0.556400  1.500002e+00  2.344069e+01  1.900044e+01  # Hw water
     52      18    1  -1.112800  2.996266e+00  2.010409e+01  2.402603e+01  # Ow water
     53      18    2   0.556400  2.981764e+00  1.953849e+01  2.479811e+01  # Hw water
     54      18    2   0.556400  2.167652e+00  1.992484e+01  2.358162e+01  # Hw water
     55      19    1  -1.112800  1.301060e+01  3.325393e+00  6.797036e+00  # Ow water
     56      19    2   0.556400  1.321709e+01  2.431195e+00  6.525010e+00  # Hw water
     57      19    2   0.556400  1.213025e+01  3.482804e+00  6.455798e+00  # Hw water
     58      20    1  -1.112800  2.138664e+00  1.597870e+00  8.867702e+00  # Ow water
     59      20    2   0.556400  2.895645e+00  2.030443e+00  8.472621e+00  # Hw water
     60      20    2   0.556400  1.515475e+00  1.499863e+00  8.147800e+00  # Hw water
     61      21    1  -1.112800  2.058416e+01  6.210502e+00  1.378134e+01  # Ow water
     62      21    2   0.556400  1.988862e+01  6.533483e+00  1.320850e+01  # Hw water
     63      21    2   0.556400  2.139017e+01  6.558467e+00  1.339990e+01  # Hw water
     64      22    1  -1.112800  1.476617e+01  2.489973e+01  1.596120e+01  # Ow water
     65      22    2   0.556400  1.502087e+01  2.480775e+01  1.687929e+01  # Hw water
     66      22    2   0.556400  1.556904e+01  2.472378e+01  1.547062e+01  # Hw water
     67      23    1  -1.112800  8.105159e+00  1.560483e+01  1.278045e+01  # Ow water
     68      23    2   0.556400  7.171455e+00  1.579928e+01  1.286178e+01  # Hw water
     69      23    2   0.556400  8.531071e+00  1.621805e+01  1.337945e+01  # Hw water
     70      24    1  -1.112800  2.078345e+00  9.236135e+00  4.404332e+00  # Ow water
     71      24    2   0.556400  1.539900e+00  8.547730e+00  4.794723e+00  # Hw water
     72      24    2   0.556400  2.204692e+00  9.870923e+00  5.109534e+00  # Hw water
     73      25    1  -1.112800  1.907043e+01  6.222254e+00  2.455907e+01  # Ow water
     74      25    2   0.556400  1.824374e+01  6.563362e+00  2.490032e+01  # Hw water
     75      25    2   0.556400  1.960011e+01  7.001454e+00  2.439019e+01  # Hw water
     76      26    1  -1.112800  1.173377e+01  7.415735e+00  2.082586e+00  # Ow water
     77      26    2   0.556400  1.104616e+01  7.736862e+00  1.499239e+00  # Hw water
     78      26    2   0.556400  1.234466e+01  6.958560e+00  1.504629e+00  # Hw water
     79      27    1  -1.112800  1.566590e+01  1.528313e+00  2.334757e+01  # Ow water
     80      27    2   0.556400  1.603510e+01  1.509689e+00  2.423051e+01  # Hw water
     81      27    2   0.556400  1.561010e+01  2.458868e+00  2.313036e+01  # Hw water
     82      28    1  -1.112800  7.124217e+00  1.723691e+01  9.607568e+00  # Ow water
     83      28    2   0.556400  6.496391e+00  1.792785e+01  9.396239e+00  # Hw water
     84      28    2   0.556400  7.672828e+00  1.761340e+01  1.029569e+01  # Hw water
     85      29    1  -1.112800  3.033797e+00  1.105271e+01  2.220086e+01  # Ow water
     86      29    2   0.556400  3.407311e+00  1.192446e+01  2.233039e+01  # Hw water
     87      29    2   0.556400  3.785052e+00  1.046105e+01  2.224301e+01  # Hw water
     88      30    1  -1.112800  8.311328e+00  2.488659e+01  6.943246e+00  # Ow water
     89      30    2   0.556400  8.277830e+00  2.489970e+01  5.986724e+00  # Hw water
     90      30    2   0.556400  7.393763e+00  2.489604e+01  7.215669e+00  # Hw water
     91      31    1  -1.112800  6.599238e+00  2.258305e+01  6.112034e+00  # Ow water
     92      31    2   0.556400  7.365476e+00  2.249734e+01  5.544793e+00  # Hw water
     93      31    2   0.556400  5.896933e+00  2.214082e+01  5.635142e+00  # Hw water
     94      32    1  -1.112800  9.830639e+00  1.539995e+01  9.950516e+00  # Ow water
     95      32    2   0.556400  9.744544e+00  1.553409e+01  1.089435e+01  # Hw water
     96      32    2   0.556400  8.945194e+00  1.552403e+01  9.608726e+00  # Hw water
     97      33    1  -1.112800  2.490118e+01  1.033198e+01  1.266420e+01  # Ow water
     98      33    2   0.556400  2.485676e+01  9.783750e+00  1.188082e+01  # Hw water
     99      33    2   0.556400  2.454820e+01  1.117711e+01  1.238601e+01  # Hw water
    100      34    1  -1.112800  4.258358e+00  4.481471e+00  3.757546e+00  # Ow water
    101      34    2   0.556400  3.658627e+00  3.854663e+00  4.162100e+00  # Hw water
    102      34    2   0.556400  4.571236e+00  5.018460e+00  4.485543e+00  # Hw water
    103      35    1  -1.112800  9.671269e+00  5.858040e+00  1.321120e+01  # Ow water
    104      35    2   0.556400  8.929806e+00  5.952123e+00  1.261320e+01  # Hw water
    105      35    2   0.556400  1.043470e+01  5.789139e+00  1.263792e+01  # Hw water
    106      36    1  -1.112800  1.349517e+01  1.152122e+01  2.245962e+01  # Ow water
    107      36    2   0.556400  1.438841e+01  1.186464e+01  2.248018e+01  # Hw water
    108      36    2   0.556400  1.355008e+01  1.074267e+01  2.190548e+01  # Hw water
    109      37    1  -1.112800  5.552066e+00  2.489971e+01  2.425638e+01  # Ow water
    110      37    2   0.556400  6.256096e+00  2.481798e+01  2.489972e+01  # Hw water
    111      37    2   0.556400  4.748741e+00  2.488605e+01  2.477668e+01  # Hw water
    112      38    1  -1.112800  1.401258e+01  1.183592e+01  1.135065e+01  # Ow water
    113      38    2   0.556400  1.379347e+01  1.226249e+01  1.052225e+01  # Hw water
    114      38    2   0.556400  1.360730e+01  1.097090e+01  1.128973e+01  # Hw water
    115      39    1  -1.112800  7.196341e+00  4.391399e+00  7.571813e+00  # Ow water
    116      39    2   0.556400  7.524578e+00  4.093321e+00  8.420128e+00  # Hw water
    117      39    2   0.556400  7.581122e+00  5.260363e+00  7.457471e+00  # Hw water
    118      40    1  -1.112800  4.696902e+00  1.277622e+01  2.429932e+01  # Ow water
    119      40    2   0.556400  4.262400e+00  1.214482e+01  2.487270e+01  # Hw water
    120      40    2   0.556400  5.049644e+00  1.343775e+01  2.489445e+01  # Hw water
    121      41    1  -1.112800  1.469964e+01  2.489971e+01  2.489969e+01  # Ow water
    122      41    2   0.556400  1.565133e+01  2.479719e+01  2.489979e+01  # Hw water
    123      41    2   0.556400  1.436186e+01  2.400479e+01  2.486447e+01  # Hw water
    124      42    1  -1.112800  1.819143e+01  6.224265e+00  2.197796e+01  # Ow water
    125      42    2   0.556400  1.814421e+01  6.481614e+00  2.105721e+01  # Hw water
    126      42    2   0.556400  1.793423e+01  7.010048e+00  2.246027e+01  # Hw water
    127      43    1  -1.112800  7.756333e+00  1.407464e+01  7.921635e+00  # Ow water
    128      43    2   0.556400  7.237807e+00  1.331858e+01  7.646451e+00  # Hw water
    129      43    2   0.556400  7.645945e+00  1.471124e+01  7.215384e+00  # Hw water
    130      44    1  -1.112800  1.815254e+01  1.777415e+01  6.957776e+00  # Ow water
    131      44    2   0.556400  1.759425e+01  1.802393e+01  7.694083e+00  # Hw water
    132      44    2   0.556400  1.904146e+01  1.797168e+01  7.252788e+00  # Hw water
    133      45    1  -1.112800  1.995451e+01  1.914637e+01  1.940055e+01  # Ow water
    134      45    2   0.556400  1.930862e+01  1.969174e+01  1.984958e+01  # Hw water
    135      45    2   0.556400  2.073150e+01  1.970126e+01  1.933263e+01  # Hw water
    136      46    1  -1.112800  2.185834e+01  2.410583e+01  1.553629e+01  # Ow water
    137      46    2   0.556400  2.098635e+01  2.438390e+01  1.525606e+01  # Hw water
    138      46    2   0.556400  2.226264e+01  2.489989e+01  1.588592e+01  # Hw water
    139      47    1  -1.112800  2.489119e+01  1.244874e+01  1.676073e+01  # Ow water
    140      47    2   0.556400  2.489983e+01  1.298176e+01  1.596572e+01  # Hw water
    141      47    2   0.556400  2.396251e+01  1.232957e+01  1.695968e+01  # Hw water
    142      48    1  -1.112800  1.036137e+01  2.090449e+01  2.432687e+01  # Ow water
    143      48    2   0.556400  1.047693e+01  2.014664e+01  2.490006e+01  # Hw water
    144      48    2   0.556400  9.827559e+00  2.151279e+01  2.483798e+01  # Hw water
    145      49    1  -1.112800  8.905677e+00  1.100953e+01  6.744428e+00  # Ow water
    146      49    2   0.556400  7.950483e+00  1.106443e+01  6.715800e+00  # Hw water
    147      49    2   0.556400  9.100550e+00  1.009937e+01  6.521155e+00  # Hw water
    148      50    1  -1.112800  2.297856e+01  2.486723e+01  2.115808e+00  # Ow water
    149      50    2   0.556400  2.220079e+01  2.480373e+01  1.561494e+00  # Hw water
    150      50    2   0.556400  2.371035e+01  2.490006e+01  1.499665e+00  # Hw water
    151      51    1  -1.112800  1.499679e+00  2.169483e+01  3.195338e+00  # Ow water
    152      51    2   0.556400  1.504159e+00  2.244074e+01  3.795185e+00  # Hw water
    153      51    2   0.556400  1.518455e+00  2.092718e+01  3.766818e+00  # Hw water
    154      52    1  -1.112800  7.461770e+00  2.028844e+00  2.472088e+01  # Ow water
    155      52    2   0.556400  7.566572e+00  2.496801e+00  2.389247e+01  # Hw water
    156      52    2   0.556400  6.522147e+00  2.065152e+00  2.489982e+01  # Hw water
    157      53    1  -1.112800  2.475613e+01  1.153322e+01  7.137023e+00  # Ow water
    158      53    2   0.556400  2.490077e+01  1.242455e+01  7.454566e+00  # Hw water
    159      53    2   0.556400  2.404612e+01  1.119608e+01  7.683337e+00  # Hw water
    160      54    1  -1.112800  6.778103e+00  5.077444e+00  2.319191e+01  # Ow water
    161      54    2   0.556400  6.390417e+00  5.826599e+00  2.273947e+01  # Hw water
    162      54    2   0.556400  7.097991e+00  4.511869e+00  2.248904e+01  # Hw water
    163      55    1  -1.112800  2.258205e+01  1.408503e+01  2.043680e+01  # Ow water
    164      55    2   0.556400  2.270495e+01  1.493945e+01  2.085044e+01  # Hw water
    165      55    2   0.556400  2.202686e+01  1.426349e+01  1.967776e+01  # Hw water
    166      56    1  -1.112800  1.677213e+01  1.415588e+01  1.476721e+01  # Ow water
    167      56    2   0.556400  1.742263e+01  1.379330e+01  1.416587e+01  # Hw water
    168      56    2   0.556400  1.626346e+01  1.476483e+01  1.423179e+01  # Hw water
    169      57    1  -1.112800  1.545723e+00  8.019262e+00  1.225461e+01  # Ow water
    170      57    2   0.556400  1.535674e+00  7.371475e+00  1.154998e+01  # Hw water
    171      57    2   0.556400  2.474773e+00  8.168449e+00  1.243022e+01  # Hw water
    172      58    1  -1.112800  6.423836e+00  2.232376e+01  2.484088e+01  # Ow water
    173      58    2   0.556400  6.183662e+00  2.250269e+01  2.393174e+01  # Hw water
    174      58    2   0.556400  7.347400e+00  2.256875e+01  2.489779e+01  # Hw water
    175      59    1  -1.112800  1.433866e+01  1.637598e+01  1.235883e+01  # Ow water
    176      59    2   0.556400  1.399637e+01  1.586093e+01  1.308944e+01  # Hw water
    177      59    2   0.556400  1.482235e+01  1.708989e+01  1.277430e+01  # Hw water
    178      60    1  -1.112800  1.494532e+01  1.382697e+01  1.748632e+01  # Ow water
    179      60    2   0.556400  1.497096e+01  1.316276e+01  1.817508e+01  # Hw water
    180      60    2   0.556400  1.545126e+01  1.344737e+01  1.676788e+01  # Hw water
    181      61    1  -1.112800  2.108621e+01  5.535176e+00  1.068356e+01  # Ow water
    182      61    2   0.556400  2.113471e+01  4.990813e+00  1.146940e+01  # Hw water
    183      61    2   0.556400  2.026126e+01  6.012382e+00  1.077272e+01  # Hw water
    184      62    1  -1.112800  1.786085e+00  1.006082e+01  2.484974e+01  # Ow water
    185      62    2   0.556400  1.554449e+00  9.669271e+00  2.400756e+01  # Hw water
    186      62    2   0.556400  2.740407e+00  9.998046e+00  2.488921e+01  # Hw water
    187      63    1  -1.112800  2.992173e+00  2.010517e+01  1.837988e+00  # Ow water
    188      63    2   0.556400  2.102308e+00  1.992677e+01  1.533783e+00  # Hw water
    189      63    2   0.556400  3.190992e+00  2.097819e+01  1.499553e+00  # Hw water
    190      64    1  -1.112800  1.973276e+01  1.921752e+01  9.553304e+00  # Ow water
    191      64    2   0.556400  2.042517e+01  1.971251e+01  9.115366e+00  # Hw water
    192      64    2   0.556400  1.893160e+01  1.970538e+01  9.362580e+00  # Hw water
    193      65    1  -1.112800  1.717185e+00  1.664181e+01  2.489972e+01  # Ow water
    194      65    2   0.556400  1.499892e+00  1.580192e+01  2.449526e+01  # Hw water
    195      65    2   0.556400  1.500301e+00  1.729281e+01  2.423235e+01  # Hw water
    196      66    1  -1.112800  2.260330e+01  1.077065e+01  1.086882e+01  # Ow water
    197      66    2   0.556400  2.226253e+01  1.165871e+01  1.097582e+01  # Hw water
    198      66    2   0.556400  2.331447e+01  1.086129e+01  1.023459e+01  # Hw water
    199      67    1  -1.112800  1.033747e+01  9.180388e+00  1.327829e+01  # Ow water
    200      67    2   0.556400  1.034634e+01  8.257740e+00  1.302360e+01  # Hw water
    201      67    2   0.556400  1.050404e+01  9.655668e+00  1.246430e+01  # Hw water
    202      68    1  -1.112800  1.868244e+01  2.355090e+00  1.262476e+01  # Ow water
    203      68    2   0.556400  1.893539e+01  1.513692e+00  1.300462e+01  # Hw water
    204      68    2   0.556400  1.926196e+01  2.991435e+00  1.304363e+01  # Hw water
    205      69    1  -1.112800  1.302999e+01  1.697645e+00  1.301608e+01  # Ow water
    206      69    2   0.556400  1.352143e+01  1.979399e+00  1.224450e+01  # Hw water
    207      69    2   0.556400  1.215559e+01  1.495675e+00  1.268312e+01  # Hw water
    208      70    1  -1.112800  4.453868e+00  2.004416e+01  4.807871e+00  # Ow water
    209      70    2   0.556400  3.888427e+00  1.967183e+01  4.131202e+00  # Hw water
    210      70    2   0.556400  3.848284e+00  2.042491e+01  5.443895e+00  # Hw water
    211      71    1  -1.112800  1.728019e+00  1.086625e+01  2.410889e+00  # Ow water
    212      71    2   0.556400  1.497922e+00  1.000254e+01  2.068420e+00  # Hw water
    213      71    2   0.556400  1.595303e+00  1.146044e+01  1.672272e+00  # Hw water
    214      72    1  -1.112800  2.034916e+01  1.664072e+01  5.109977e+00  # Ow water
    215      72    2   0.556400  2.041492e+01  1.600823e+01  5.825423e+00  # Hw water
    216      72    2   0.556400  1.941091e+01  1.680993e+01  5.024718e+00  # Hw water
    217      73    1  -1.112800  7.363800e+00  1.515388e+01  2.234259e+01  # Ow water
    218      73    2   0.556400  7.621327e+00  1.428482e+01  2.265024e+01  # Hw water
    219      73    2   0.556400  6.410192e+00  1.516470e+01  2.242471e+01  # Hw water
    220      74    1  -1.112800  3.784841e+00  2.133711e+01  1.525393e+01  # Ow water
    221      74    2   0.556400  3.255095e+00  2.107098e+01  1.450241e+01  # Hw water
    222      74    2   0.556400  4.611380e+00  2.163275e+01  1.487228e+01  # Hw water
    223      75    1  -1.112800  1.614346e+01  1.842541e+01  2.128292e+00  # Ow water
    224      75    2   0.556400  1.548976e+01  1.811852e+01  1.500018e+00  # Hw water
    225      75    2   0.556400  1.691694e+01  1.861418e+01  1.596943e+00  # Hw water
    226      76    1  -1.112800  1.716930e+01  6.723239e+00  1.599838e+01  # Ow water
    227      76    2   0.556400  1.773703e+01  6.103844e+00  1.553984e+01  # Hw water
    228      76    2   0.556400  1.768265e+01  7.003771e+00  1.675601e+01  # Hw water
    229      77    1  -1.112800  1.296532e+01  2.005542e+00  1.610864e+01  # Ow water
    230      77    2   0.556400  1.349570e+01  1.499930e+00  1.549278e+01  # Hw water
    231      77    2   0.556400  1.281750e+01  2.842089e+00  1.566754e+01  # Hw water
    232      78    1  -1.112800  4.345684e+00  1.237486e+01  1.988203e+01  # Ow water
    233      78    2   0.556400  4.313567e+00  1.254364e+01  1.894038e+01  # Hw water
    234      78    2   0.556400  4.087367e+00  1.145742e+01  1.997036e+01  # Hw water
    235      79    1  -1.112800  1.662481e+00  5.326495e+00  6.117821e+00  # Ow water
    236      79    2   0.556400  2.498959e+00  4.889991e+00  6.279056e+00  # Hw water
    237      79    2   0.556400  1.502103e+00  5.838282e+00  6.910653e+00  # Hw water
    238      80    1  -1.112800  2.239918e+01  1.385510e+01  7.427831e+00  # Ow water
    239      80    2   0.556400  2.315419e+01  1.412630e+01  6.905688e+00  # Hw water
    240      80    2   0.556400  2.173042e+01  1.362678e+01  6.782181e+00  # Hw water
    241      81    1  -1.112800  1.058240e+01  1.501420e+00  7.308553e+00  # Ow water
    242      81    2   0.556400  9.826777e+00  1.499886e+00  7.896140e+00  # Hw water
    243      81    2   0.556400  1.134066e+01  1.504847e+00  7.892721e+00  # Hw water
    244      82    1  -1.112800  8.808394e+00  5.865917e+00  9.628173e+00  # Ow water
    245      82    2   0.556400  9.470226e+00  5.949909e+00  8.941767e+00  # Hw water
    246      82    2   0.556400  9.172372e+00  5.221223e+00  1.023490e+01  # Hw water
    247      83    1  -1.112800  1.650991e+01  1.387544e+01  1.184005e+01  # Ow water
    248      83    2   0.556400  1.590367e+01  1.457798e+01  1.160520e+01  # Hw water
    249      83    2   0.556400  1.666686e+01  1.340937e+01  1.101885e+01  # Hw water
    250      84    1  -1.112800  1.641740e+01  1.729766e+01  9.805644e+00  # Ow water
    251      84    2   0.556400  1.615639e+01  1.821823e+01  9.831108e+00  # Hw water
    252      84    2   0.556400  1.601620e+01  1.691282e+01  1.058485e+01  # Hw water
    253      85    1  -1.112800  1.932370e+01  1.000785e+01  2.441992e+01  # Ow water
    254      85    2   0.556400  1.991566e+01  9.428540e+00  2.489973e+01  # Hw water
    255      85    2   0.556400  1.978611e+01  1.020153e+01  2.360451e+01  # Hw water
    256      86    1  -1.112800  1.849675e+01  1.797469e+01  2.428221e+01  # Ow water
    257      86    2   0.556400  1.904348e+01  1.853492e+01  2.483309e+01  # Hw water
    258      86    2   0.556400  1.793833e+01  1.750240e+01  2.489972e+01  # Hw water
    259      87    1  -1.112800  2.486816e+01  2.229546e+01  2.148337e+01  # Ow water
    260      87    2   0.556400  2.393611e+01  2.243163e+01  2.131318e+01  # Hw water
    261      87    2   0.556400  2.489972e+01  2.151369e+01  2.203479e+01  # Hw water
    262      88    1  -1.112800  7.294020e+00  1.362284e+01  1.946091e+01  # Ow water
    263      88    2   0.556400  7.825242e+00  1.354681e+01  2.025353e+01  # Hw water
    264      88    2   0.556400  7.930864e+00  1.373283e+01  1.875482e+01  # Hw water
    265      89    1  -1.112800  1.575680e+01  7.195609e+00  2.085635e+01  # Ow water
    266      89    2   0.556400  1.554735e+01  7.314966e+00  2.178270e+01  # Hw water
    267      89    2   0.556400  1.567177e+01  6.253410e+00  2.071054e+01  # Hw water
    268      90    1  -1.112800  1.995713e+01  2.111816e+01  6.285610e+00  # Ow water
    269      90    2   0.556400  1.936814e+01  2.080473e+01  6.971969e+00  # Hw water
    270      90    2   0.556400  2.044470e+01  2.183260e+01  6.695574e+00  # Hw water
    271      91    1  -1.112800  1.535684e+01  5.470959e+00  2.345974e+01  # Ow water
    272      91    2   0.556400  1.533933e+01  4.751227e+00  2.409054e+01  # Hw water
    273      91    2   0.556400  1.447911e+01  5.850255e+00  2.350397e+01  # Hw water
    274      92    1  -1.112800  9.819319e+00  1.649102e+01  3.423876e+00  # Ow water
    275      92    2   0.556400  9.497380e+00  1.695265e+01  2.649617e+00  # Hw water
    276      92    2   0.556400  9.290674e+00  1.569412e+01  3.465248e+00  # Hw water
    277      93    1  -1.112800  2.239540e+01  2.475785e+01  2.471243e+01  # Ow water
    278      93    2   0.556400  2.247278e+01  2.489970e+01  2.376897e+01  # Hw water
    279      93    2   0.556400  2.146617e+01  2.489083e+01  2.489970e+01  # Hw water
    280      94    1  -1.112800  2.416586e+01  2.014522e+01  1.728262e+00  # Ow water
    281      94    2   0.556400  2.406183e+01  1.922136e+01  1.500491e+00  # Hw water
    282      94    2   0.556400  2.332642e+01  2.054464e+01  1.500160e+00  # Hw water
    283      95    1  -1.112800  2.294202e+01  2.241397e+01  1.289754e+01  # Ow water
    284      95    2   0.556400  2.224575e+01  2.242661e+01  1.224082e+01  # Hw water
    285      95    2   0.556400  2.248385e+01  2.248961e+01  1.373455e+01  # Hw water
    286      96    1  -1.112800  5.430444e+00  9.807716e+00  2.400717e+01  # Ow water
    287      96    2   0.556400  6.157013e+00  9.340480e+00  2.359483e+01  # Hw water
    288      96    2   0.556400  5.730960e+00  9.979060e+00  2.489967e+01  # Hw water
    289      97    1  -1.112800  1.113637e+01  1.016056e+01  2.429546e+01  # Ow water
    290      97    2   0.556400  1.180663e+01  9.841845e+00  2.489994e+01  # Hw water
    291      97    2   0.556400  1.047734e+01  1.056521e+01  2.485952e+01  # Hw water
    292      98    1  -1.112800  6.049952e+00  2.170407e+01  2.272354e+00  # Ow water
    293      98    2   0.556400  5.756326e+00  2.222733e+01  1.526553e+00  # Hw water
    294      98    2   0.556400  5.596332e+00  2.086720e+01  2.171815e+00  # Hw water
    295      99    1  -1.112800  6.248499e+00  1.605112e+00  9.202345e+00  # Ow water
    296      99    2   0.556400  5.416549e+00  1.498349e+00  8.741162e+00  # Hw water
    297      99    2   0.556400  6.908701e+00  1.606052e+00  8.509264e+00  # Hw water
    298     100    1  -1.112800  9.782570e+00  1.202891e+01  1.770021e+01  # Ow water
    299     100    2   0.556400  1.009863e+01  1.245571e+01  1.849656e+01  # Hw water
    300     100    2   0.556400  9.080940e+00  1.145092e+01  1.799999e+01  # Hw water
    301     101    1  -1.112800  1.264825e+01  2.007537e+01  1.499986e+00  # Ow water
    302     101    2   0.556400  1.335005e+01  1.962638e+01  1.971272e+00  # Hw water
    303     101    2   0.556400  1.283057e+01  2.100629e+01  1.627956e+00  # Hw water
    304     102    1  -1.112800  1.377700e+01  1.869911e+01  2.023029e+01  # Ow water
    305     102    2   0.556400  1.353480e+01  1.777314e+01  2.024199e+01  # Hw water
    306     102    2   0.556400  1.473379e+01  1.869658e+01  2.020240e+01  # Hw water
    307     103    1  -1.112800  7.970700e+00  2.197652e+01  8.353403e+00  # Ow water
    308     103    2   0.556400  7.284401e+00  2.256012e+01  8.676876e+00  # Hw water
    309     103    2   0.556400  8.691585e+00  2.256081e+01  8.118552e+00  # Hw water
    310     104    1  -1.112800  6.060400e+00  1.030003e+01  4.675984e+00  # Ow water
    311     104    2   0.556400  6.567062e+00  1.110917e+01  4.606615e+00  # Hw water
    312     104    2   0.556400  6.539049e+00  9.670204e+00  4.137054e+00  # Hw water
    313     105    1  -1.112800  1.528675e+00  1.768323e+01  1.706286e+01  # Ow water
    314     105    2   0.556400  1.570862e+00  1.711489e+01  1.629381e+01  # Hw water
    315     105    2   0.556400  1.499974e+00  1.857031e+01  1.670442e+01  # Hw water
    316     106    1  -1.112800  1.218948e+01  1.616475e+01  4.912899e+00  # Ow water
    317     106    2   0.556400  1.201567e+01  1.705853e+01  5.208152e+00  # Hw water
    318     106    2   0.556400  1.141031e+01  1.567147e+01  5.169409e+00  # Hw water
    319     107    1  -1.112800  1.041089e+01  1.990065e+00  1.550778e+01  # Ow water
    320     107    2   0.556400  9.600297e+00  1.499738e+00  1.564469e+01  # Hw water
    321     107    2   0.556400  1.087700e+01  1.499070e+00  1.483110e+01  # Hw water
    322     108    1  -1.112800  1.507493e+01  1.506226e+01  9.192328e+00  # Ow water
    323     108    2   0.556400  1.433787e+01  1.524670e+01  9.774527e+00  # Hw water
    324     108    2   0.556400  1.512773e+01  1.410685e+01  9.167263e+00  # Hw water
    325     109    1  -1.112800  7.320646e+00  6.916529e+00  1.537813e+01  # Ow water
    326     109    2   0.556400  7.584113e+00  6.967382e+00  1.445931e+01  # Hw water
    327     109    2   0.556400  8.134585e+00  7.033728e+00  1.586802e+01  # Hw water
    328     110    1  -1.112800  1.529780e+01  1.423128e+01  2.213840e+01  # Ow water
    329     110    2   0.556400  1.548704e+01  1.384694e+01  2.128243e+01  # Hw water
    330     110    2   0.556400  1.602846e+01  1.482806e+01  2.230035e+01  # Hw water
    331     111    1  -1.112800  8.727103e+00  8.796821e+00  2.249536e+01  # Ow water
    332     111    2   0.556400  9.414091e+00  8.504366e+00  2.189640e+01  # Hw water
    333     111    2   0.556400  7.985511e+00  8.220854e+00  2.230953e+01  # Hw water
    334     112    1  -1.112800  1.850209e+01  1.533372e+01  9.327642e+00  # Ow water
    335     112    2   0.556400  1.776460e+01  1.473574e+01  9.206210e+00  # Hw water
    336     112    2   0.556400  1.857701e+01  1.579511e+01  8.492335e+00  # Hw water
    337     113    1  -1.112800  1.428617e+01  2.489970e+01  5.944879e+00  # Ow water
    338     113    2   0.556400  1.523808e+01  2.489466e+01  5.844571e+00  # Hw water
    339     113    2   0.556400  1.395051e+01  2.479020e+01  5.055174e+00  # Hw water
    340     114    1  -1.112800  1.862239e+01  1.611414e+01  2.254231e+01  # Ow water
    341     114    2   0.556400  1.827018e+01  1.562321e+01  2.328471e+01  # Hw water
    342     114    2   0.556400  1.864043e+01  1.548221e+01  2.182357e+01  # Hw water
    343     115    1  -1.112800  1.486216e+01  2.463616e+01  8.616226e+00  # Ow water
    344     115    2   0.556400  1.445451e+01  2.489970e+01  9.441208e+00  # Hw water
    345     115    2   0.556400  1.433306e+01  2.389885e+01  8.311853e+00  # Hw water
    346     116    1  -1.112800  1.607352e+01  1.243130e+01  1.628152e+00  # Ow water