1689
Atoms. Timestep: 0
Ow 19.9302 10.9488 12.4097
H 20.8423 11.2274 12.4919
H 19.4204 11.7263 12.6371
Ow 14.4161 17.9593 12.2695
H 14.4848 18.914 12.2568
H 13.848 17.7497 11.5282
Ow 4.98552 3.08883 16.7707
H 5.38441 2.76483 15.9631
H 4.09055 3.31883 16.5208
Ow 7.3675 18.0719 22.1944
H 6.96776 18.9338 22.0776
H 7.88603 17.9383 21.401
Ow 5.91904 1.93735 14.1822
H 5.54282 1.68183 13.3399
H 6.15187 1.10915 14.6022
Ow 21.18 15.0316 15.9707
H 22.0317 15.3171 15.6398
H 20.6465 15.8263 15.9777
Ow 15.1786 24.0966 24.1344
H 15.2149 24.7344 23.4217
H 14.2443 23.9902 24.3137
Ow 13.306 13.4616 8.94303
H 13.5432 13.1967 9.83185
H 13.0149 12.653 8.52134
Ow 1.42642 6.42454 21.6861
H 0.984049 7.08516 21.1272
H 1.62639 6.90247 22.4909
Ow 2.98163 8.7362 25.6394
H 3.21391 9.64637 25.8231
H 2.97183 8.67927 24.6838
Ow 5.59645 10.7478 20.3632
H 5.19694 11.6176 20.364
H 5.79815 10.5754 21.2829
Ow 3.31374 22.8644 22.1026
H 3.5926 23.7679 22.2513
H 3.7735 22.358 22.7724
Ow 7.77994 23.1997 18.5074
H 7.49278 23.9631 19.0083
H 8.56926 22.8998 18.9583
Ow 1.39981 0.879782 25.4916
H 0.820212 25.8567 24.8689
H 0.91127 1.65479 25.7691
Ow 22.4432 12.1863 5.49884
H 23.1041 11.4998 5.59002
H 21.8376 11.8502 4.8382
Ow 25.8147 17.5848 14.8728
H 25.6441 17.7661 15.7971
H 25.346 18.2743 14.4024
Ow 3.94149 6.29026 15.9937
H 3.23188 6.93281 15.9893
H 3.87449 5.86476 16.8484
Ow 25.7253 17.1842 0.875032
H 0.650104 18.0641 1.03625
H 25.5075 17.1584 25.3522
Ow 14.9705 21.019 25.8277
H 15.5862 20.5312 0.959035
H 14.1865 20.4704 25.8011
Ow 1.21068 11.6631 15.6458
H 1.85955 10.9863 15.4531
H 1.67766 12.294 16.1936
Ow 7.1632 25.4099 16.0703
H 7.59055 25.6861 16.8811
H 7.70475 24.6898 15.7469
Ow 6.7729 7.4734 2.93891
H 7.64287 7.8591 2.83631
H 6.37576 7.96488 3.65778
Ow 0.614363 21.0758 7.82799
H 25.3809 21.3337 7.17353
H 25.5195 20.6551 8.51976
Ow 6.52714 17.5995 14.4422
H 5.87295 16.9049 14.5192
H 6.66091 17.9038 15.3399
Ow 5.27997 1.27469 11.6275
H 5.06323 2.17049 11.3362
H 6.08728 1.04458 11.1675
Ow 5.804 4.15944 24.6682
H 5.70654 4.9746 25.1604
H 6.2013 4.42588 23.8391
Ow 6.31227 2.82454 3.60676
H 7.23763 2.5827 3.5708
H 5.93386 2.23073 4.25514
Ow 15.3206 0.887938 22.589
H 16.0862 1.31216 23.0202
H 15.3619 1.19466 21.6831
Ow 23.7144 12.2765 8.80599
H 24.4823 12.2153 9.37426
H 23.1878 12.9783 9.18877
Ow 8.64767 5.67406 3.88715
H 8.80654 5.19299 3.07499
H 7.74903 5.99358 3.80497
Ow 23.1898 21.6908 23.9445
H 23.0523 20.7489 24.0455
H 23.8683 21.7636 23.2732
Ow 15.9459 9.02411 17.3876
H 15.5277 9.87825 17.4966
H 15.3567 8.4107 17.8267
Ow 24.4484 22.1661 1.23605
H 24.2423 22.1329 25.7176
H 25.3585 22.4606 1.27062
Ow 10.6588 4.80663 18.2612
H 10.1671 5.59512 18.4909
H 11.5545 5.13687 18.0857
Ow 14.912 21.9028 7.5763
H 15.814 21.8829 7.25692
H 14.4732 21.1788 7.09306
Ow 9.47176 8.50983 2.87764
H 9.77141 9.18805 2.27223
H 10.1393 7.82616 2.82159
Ow 12.3113 19.8099 0.747697
H 11.7417 20.5781 0.70646
H 12.332 19.576 1.67567
Ow 20.5914 3.67413 4.99274
H 19.6504 3.58725 4.84001
H 20.854 4.42115 4.45489
Ow 14.8179 13.2436 4.83115
H 15.4048 12.5444 5.11906
H 14.6666 13.7688 5.61719
Ow 18.8904 10.535 24.5959
H 19.6486 10.0069 24.8452
H 18.5439 10.864 25.4254
Ow 13.3337 23.8219 5.10427
H 12.7127 23.4741 4.46427
H 13.8996 23.0798 5.31698
Ow 4.015 4.90919 12.7854
H 4.51657 4.58741 12.0362
H 4.63207 4.88134 13.5168
Ow 11.5162 15.2693 9.62347
H 12.1383 14.6329 9.27098
H 10.9741 14.7646 10.2297
Ow 11.0294 25.7463 23.7971
H 11.0924 1.26121 24.0123
H 10.6673 25.7289 22.9112
Ow 25.658 2.47864 11.7984
H 0.846129 2.83308 12.4512
H 24.8854 3.04094 11.8557
Ow 24.765 14.4776 19.7696
H 24.0174 14.8404 19.2944
H 25.5289 14.8897 19.3658
Ow 22.1829 24.679 7.62245
H 21.7627 24.9204 8.44789
H 21.9351 25.3753 7.01425
Ow 7.4523 17.5142 17.0327
H 6.71413 17.2871 17.5982
H 7.80353 16.671 16.7463
Ow 8.72049 11.9553 8.35628
H 9.31486 11.2309 8.55186
H 8.63071 11.9415 7.40338
Ow 11.0604 22.2246 0.894235
H 10.1997 21.9925 0.545799
H 10.9207 22.3186 1.83647
Ow 21.1239 10.65 16.3897
H 22.0453 10.9095 16.385
H 21.1387 9.70542 16.6243
Ow 1.05866 19.4675 22.7221
H 1.54041 19.8525 23.4541
H 1.70632 19.3923 22.0214
Ow 14.8502 6.91214 12.7776
H 15.2538 7.33562 13.5353
H 14.3444 7.60664 12.3557
Ow 11.9731 5.47401 15.5562
H 12.2921 5.38444 16.4542
H 12.0627 6.40696 15.3616
Ow 19.9944 19.7772 9.06306
H 19.572 19.9394 8.2196
H 20.8893 20.0977 8.94876
Ow 13.7402 2.89665 8.31793
H 12.9536 2.89153 7.77255
H 14.0396 3.80557 8.29872
Ow 2.8195 15.341 15.2459
H 3.04431 15.9925 15.9102
H 3.6416 15.1752 14.7845
Ow 10.6888 24.6941 12.7908
H 11.5811 24.6143 12.4535
H 10.5206 25.6363 12.8038
Ow 18.6752 11.6434 1.9306
H 17.8948 11.2008 2.2643
H 18.6345 12.5209 2.311
Ow 15.566 7.27485 6.55665
H 15.1417 6.89628 5.78665
H 15.1189 8.11061 6.6905
Ow 1.02 19.8058 2.00662
H 0.73245 20.6319 1.61823
H 0.748612 19.8637 2.92274
Ow 20.0403 11.118 9.40552
H 19.2091 10.7539 9.10068
H 19.9229 11.2089 10.3681
Ow 16.6716 21.0221 19.8186
H 15.7655 20.7419 19.6889
H 16.605 21.8022 20.3694
Ow 9.43451 15.5453 16.7278
H 9.37914 15.139 17.5927
H 10.317 15.337 16.4209
Ow 15.6656 1.8575 20.1211
H 15.7301 1.00143 19.6977
H 16.5627 2.06337 20.3839
Ow 17.963 14.4265 2.54803
H 17.4938 15.0663 2.01252
H 18.8864 14.6545 2.44049
Ow 4.77475 25.7167 22.1473
H 4.48965 1.15535 21.8233
H 4.76401 25.7984 23.1165
Ow 12.2003 19.0314 3.45646
H 12.8419 18.3888 3.75935
H 12.1366 19.663 4.17296
Ow 23.1546 13.7735 3.20312
H 23.5698 13.1216 2.63837
H 23.1544 13.3728 4.07242
Ow 11.2619 25.0082 16.6345
H 11.8038 25.775 16.448
H 10.9073 25.1718 17.5083
Ow 15.6024 4.7894 10.9076
H 15.3139 5.55124 11.4102
H 15.288 4.95518 10.0188
Ow 25.1918 22.9081 15.7712
H 0.516055 22.4318 15.3946
H 25.4142 23.0039 16.6972
Ow 0.816248 25.3542 11.6361
H 25.8319 0.822481 11.5461
H 0.972123 25.2597 12.5759
Ow 14.9122 14.8639 6.90021
H 14.5445 15.7405 6.78771
H 14.2508 14.389 7.40345
Ow 11.0478 16.5727 4.54673
H 10.9116 16.6236 5.49285
H 10.9244 15.6471 4.33595
Ow 23.4048 14.7322 13.6999
H 22.9244 15.3274 13.1246
H 22.7761 14.0414 13.9096
Ow 3.63788 8.61422 13.4022
H 3.47509 9.33432 12.7929
H 4.59168 8.55504 13.4543
Ow 23.8482 11.4967 1.40603
H 24.5755 10.9327 1.66911
H 24.2433 12.1379 0.815069
Ow 8.87706 1.34712 13.5537
H 9.27223 1.96889 14.1649
H 8.72695 0.559279 14.0764
Ow 18.0909 20.0985 25.7613
H 18.447 19.2334 25.5587
H 18.5818 20.3858 1.11557
Ow 15.3306 17.0588 18.5138
H 15.828 16.2772 18.2223
H 14.5408 16.7147 18.931
Ow 23.3983 16.8998 17.1457
H 22.7812 16.9963 17.8711
H 24.2099 17.2925 17.4671
Ow 15.8675 17.5879 24.1404
H 15.8071 18.5105 23.8924
H 15.962 17.1218 23.3097
Ow 24.1237 10.1897 13.1411
H 23.5261 9.44303 13.1811
H 24.96 9.81324 12.8668
Ow 20.2517 6.73412 5.47023
H 19.5258 6.32053 5.93745
H 21.0238 6.53095 5.99833
Ow 7.74412 11.5427 2.06116
H 7.15051 10.9223 1.6381
H 8.6194 11.2439 1.8145
Ow 25.0502 1.123 5.5305
H 25.5271 1.53749 6.24941
H 24.8441 25.6615 5.8534
Ow 17.6147 4.49653 12.6816
H 18.0683 3.72077 12.3519
H 16.8847 4.62344 12.0756
Ow 9.96404 6.3318 9.44793
H 9.54423 6.17619 10.294
H 10.9019 6.28515 9.63323
Ow 8.64962 1.29343 17.9995
H 8.03797 1.69949 18.6137
H 9.3356 0.921919 18.5544
Ow 1.50174 14.8184 2.39344
H 0.761516 14.3713 2.80377
H 1.1023 15.5152 1.87251
Ow 7.76582 20.1088 12.6927
H 8.44027 20.5571 12.1824
H 7.62257 19.2838 12.2288
Ow 1.03431 24.8286 3.66085
H 0.807644 25.5653 4.22846
H 1.57753 24.2619 4.20857
Ow 16.1827 2.56649 16.755
H 15.7698 3.20188 17.3397
H 15.9678 2.87555 15.8749
Ow 17.1221 13.2088 20.5517
H 16.5403 13.4251 19.8232
H 16.6391 12.5563 21.0591
Ow 2.16041 15.4034 21.6463
H 2.06885 14.4508 21.6685
H 3.09055 15.5511 21.4751
Ow 23.823 8.11141 25.38
H 23.5071 7.46835 0.598986
H 23.5454 7.76731 24.5311
Ow 8.00958 9.54015 18.0388
H 7.5734 9.64574 17.1934
H 8.91658 9.79874 17.8749
Ow 11.8522 18.8348 19.9352
H 10.9021 18.7703 19.8383
H 12.0676 18.1987 20.6172
Ow 5.98963 19.8684 6.32759
H 5.63972 20.7064 6.63023
H 6.91476 20.043 6.15466
Ow 12.2297 17.1581 21.9624
H 11.4435 16.622 22.066
H 12.4663 17.4118 22.8545
Ow 19.901 21.743 18.6864
H 19.7559 21.8478 19.6268
H 19.6562 22.5885 18.3102
Ow 21.6948 12.9215 21.8095
H 21.3947 12.5174 20.9804
H 22.3893 12.3484 22.1345
Ow 14.8906 13.6194 14.2472
H 14.677 14.5459 14.3582
H 15.7958 13.544 14.5491
Ow 7.70681 13.2853 21.3025
H 6.95242 13.653 21.7629
H 7.95642 12.5215 21.8226
Ow 9.95742 5.82069 6.21448
H 9.57936 5.03212 6.60371
H 9.55796 5.87502 5.34629
Ow 21.288 4.59096 10.0632
H 21.3951 4.47271 9.11936
H 21.2277 3.70128 10.4112
Ow 17.4085 8.88061 11.7894
H 17.118 9.71015 12.1685
H 16.6368 8.31563 11.8282
Ow 19.9515 19.1774 23.355
H 19.3347 18.5077 23.6503
H 19.6798 19.3754 22.4587
Ow 11.1578 19.5154 8.68349
H 10.3369 19.1559 8.34732
H 11.4481 18.8797 9.3377
Ow 1.76924 3.74803 13.586
H 2.65312 3.98771 13.3073
H 1.86326 3.51754 14.5103
Ow 21.4332 2.09547 21.9171
H 21.1811 2.73839 21.2544
H 22.2638 1.73896 21.602
Ow 1.42115 15.2013 5.75303
H 2.15255 15.8167 5.70301
H 0.639978 15.7529 5.71095
Ow 9.66305 21.6545 19.5925
H 10.2506 21.7884 20.3362
H 10.2437 21.4303 18.8652
Ow 2.27036 2.98911 16.0777
H 1.74838 3.32416 16.8068
H 2.0194 2.06814 16.0062
Ow 1.14724 16.2648 11.8286
H 0.911815 17.1889 11.9118
H 0.845068 16.0179 10.9546
Ow 15.3088 2.79632 14.1849
H 16.2184 3.00498 13.9718
H 14.8034 3.15131 13.4535
Ow 5.25593 14.8987 14.0095
H 5.11511 13.957 13.9122
H 5.34409 15.222 13.1128
Ow 6.55985 22.3961 14.5727
H 7.22417 21.7737 14.8685
H 6.06123 21.9179 13.91
Ow 11.5065 2.84144 25.1578
H 12.3451 2.49509 25.463
H 10.9304 2.78154 0.504236
Ow 25.0076 17.2148 23.5407
H 24.1942 17.716 23.4841
H 25.681 17.8129 23.2165
Ow 22.9405 2.70553 17.7987
H 23.221 3.4074 18.3859
H 23.3856 2.89197 16.9719
Ow 18.4874 1.67807 17.912
H 18.4557 1.68872 18.8686
H 17.6893 2.1315 17.6404
Ow 17.2308 15.8562 16.9759
H 17.24 15.3456 16.1663
H 18.0074 15.5634 17.453
Ow 5.25637 21.1836 12.5996
H 6.11334 20.8038 12.4057
H 4.71984 20.4391 12.8718
Ow 14.1392 2.21706 4.03972
H 14.5009 1.89149 4.86402
H 13.1922 2.22423 4.17937
Ow 0.798654 22.7072 18.5748
H 1.48197 22.1547 18.9545
H 25.7114 23.0182 19.3274
Ow 22.0985 2.80835 24.4807
H 21.6504 3.49977 24.968
H 21.5964 2.72174 23.6703
Ow 0.620911 6.5597 24.7429
H 25.2536 7.10802 24.7931
H 25.7602 5.79165 24.243
Ow 5.41269 24.2473 4.81134
H 5.7086 24.5624 3.95724
H 6.20649 23.9207 5.23493
Ow 21.0009 1.49927 15.1465
H 20.784 0.652377 14.7567
H 21.5381 1.93684 14.4861
Ow 2.37821 8.62013 15.8549
H 2.91942 8.69516 15.0517
H 1.53973 8.27961 15.5163
Ow 18.9084 1.54835 8.98823
H 18.78 1.76961 9.91069
H 19.737 1.96666 8.75418
Ow 15.469 12.6968 0.859691
H 15.023 13.1674 1.5639
H 16.3953 12.7292 1.09856
Ow 25.0263 13.6362 25.66
H 24.7848 13.9747 24.7978
H 0.549098 13.4602 25.5945
Ow 7.06212 14.1573 3.42788
H 6.10773 14.1826 3.4971
H 7.24967 13.3208 3.00186
Ow 8.96101 6.92366 19.1718
H 8.46823 7.74428 19.1756
H 8.36608 6.28454 19.5639
Ow 16.1849 16.5409 21.5067
H 16.8286 17.2212 21.3089
H 15.7405 16.3816 20.6739
Ow 1.17391 3.97595 18.4703
H 0.569912 4.70148 18.3123
H 2.0292 4.39348 18.5721
Ow 21.751 9.86293 7.18247
H 22.4265 9.52304 6.59559
H 21.5813 10.7497 6.86513
Ow 19.2751 17.5308 25.6049
H 18.6934 17.1557 0.850437
H 20.0329 17.8415 0.684612
Ow 4.27838 5.14216 3.29196
H 4.8171 4.36898 3.45993
H 4.18806 5.56219 4.14725
Ow 8.92944 3.75339 23.4693
H 8.84564 2.86096 23.8052
H 8.03128 4.02271 23.2768
Ow 16.7515 11.8356 11.9234
H 15.8153 12.0024 11.8143
H 17.1791 12.5402 11.4366
Ow 14.5415 5.51584 8.48821
H 15.0752 6.07649 7.92506
H 13.8847 6.10468 8.85974
Ow 3.29968 21.4402 19.5282
H 3.47639 20.6135 19.9772
H 3.40066 22.108 20.2066
Ow 17.7574 18.68 21.14
H 17.3757 19.4661 20.7494
H 18.3856 18.369 20.4884
Ow 12.2134 24.9916 7.47064
H 12.9669 25.1479 8.03994
H 12.5949 24.707 6.64029
Ow 24.4349 4.21675 23.6685
H 23.7976 4.91727 23.5292
H 23.9032 3.43555 23.8214
Ow 15.9069 23.2326 21.5024
H 15.9742 23.8356 20.762
H 14.9892 22.9606 21.5078
Ow 22.2796 7.9004 13.3085
H 22.4995 7.3129 12.5855
H 22.5785 7.43723 14.1113
Ow 23.8078 2.60362 8.83138
H 24.0848 1.67752 8.93308
H 24.2496 3.05902 9.54816
Ow 9.22794 23.8632 15.1113
H 9.71665 24.0098 14.3014
H 9.86158 24.0339 15.8082
Ow 18.6659 2.00074 12.1264
H 18.5741 1.93091 13.0768
H 17.7756 1.89601 11.7908
Ow 16.4433 10.0099 2.65431
H 16.0079 10.0961 1.80619
H 16.8861 9.16234 2.61169
Ow 14.7612 8.76583 20.4274
H 15.4011 8.09971 20.176
H 13.9376 8.46426 20.044
Ow 0.588624 18.8433 11.6597
H 25.3558 18.9807 12.3502
H 1.29239 19.4583 11.8658
Ow 21.0705 14.2263 24.8958
H 21.812 14.4211 24.3226
H 20.3505 14.0268 24.2973
Ow 5.80481 6.25975 8.67441
H 5.94547 5.87191 7.81069
H 4.90642 6.58899 8.6462
Ow 14.372 19.6975 19.8337
H 13.4204 19.6107 19.7778
H 14.7075 18.8462 19.5528
Ow 14.3144 25.6716 9.08075
H 13.7835 25.5848 9.87256
H 14.2002 1.16813 8.81414
Ow 16.2972 1.88274 10.7429
H 16.1728 1.18902 10.0953
H 16.3067 2.69093 10.23
Ow 19.5101 21.5294 2.42204
H 20.4245 21.7984 2.51103
H 19.1219 21.7123 3.27764
Ow 5.0869 14.0952 6.73511
H 5.96293 14.442 6.90388
H 4.63849 14.1553 7.57857
Ow 16.9096 3.40157 8.47651
H 17.184 4.22654 8.076
H 17.6987 2.85972 8.47473
Ow 1.42649 12.4713 4.88035
H 1.46364 13.3011 5.35607
H 2.12907 12.534 4.23337
Ow 14.7628 20.0827 22.6509
H 13.8585 20.0746 22.9645
H 14.6913 20.0154 21.688
Ow 20.2295 15.8244 4.94801
H 19.3816 15.3804 4.93976
H 20.5913 15.6669 4.07589
Ow 17.8637 5.90394 7.03881
H 17.0687 6.43352 6.97752
H 18.3822 6.32774 7.72277
Ow 7.4989 15.0591 7.3571
H 7.55128 15.78 6.7296
H 7.19303 15.4674 8.16699
Ow 7.61457 13.5129 15.4355
H 7.83581 13.0019 14.6569
H 7.51564 14.4092 15.1143
Ow 18.997 24.1199 17.5816
H 19.7633 24.682 17.6945
H 18.4285 24.6059 16.9842
Ow 9.01462 14.9548 19.3102
H 9.96157 14.7269 19.2578
H 8.6271 14.2315 19.8031
Ow 22.6427 11.4947 11.3553
H 22.8399 12.4313 11.3645
H 23.1931 11.1266 12.0465
Ow 23.2281 9.93259 19.2811
H 23.6308 10.7764 19.0679
H 23.4228 9.39134 18.4931
Ow 3.21474 16.8606 24.0916
H 2.48571 17.4799 24.1259
H 2.82396 16.0474 23.7718
Ow 24.4578 16.6362 5.02685
H 24.405 17.5568 5.28371
H 24.0982 16.6135 4.13997
Ow 19.1767 7.97125 14.3762
H 18.8205 7.1004 14.5525
H 19.66 8.19814 15.1707
Ow 13.5567 15.7867 19.9972
H 13.3085 16.3021 20.7645
H 12.768 15.2919 19.7751
Ow 21.2397 5.37129 14.4399
H 20.8064 5.94285 13.8061
H 22.0356 5.84343 14.6843
Ow 23.2056 23.5502 19.7574
H 23.0746 23.0093 18.9785
H 22.564 23.202 20.3973
Ow 5.0588 17.4626 18.5859
H 5.00075 16.7258 19.2178
H 4.32469 17.3123 17.9903
Ow 21.598 20.2027 6.56894
H 20.6458 20.2351 6.66084
H 21.904 19.8346 7.41427
Ow 2.20516 9.11394 18.5235
H 2.2082 10.0511 18.7181
H 2.15508 9.06726 17.5687
Ow 20.8186 14.7946 2.28134
H 20.8998 14.7842 1.32761
H 21.4627 14.1545 2.58402
Ow 17.959 4.57234 22.1011
H 17.5228 4.214 22.8742
H 18.633 5.15347 22.4536
Ow 17.8102 22.7557 9.43182
H 18.0575 23.0731 10.3004
H 17.5946 21.8327 9.56595
Ow 18.3026 7.94612 3.04947
H 18.6866 7.91823 3.92584
H 18.9707 7.56109 2.48229
Ow 14.8274 20.6603 12.1695
H 13.9582 20.9071 12.4854
H 15.0211 21.295 11.4796
Ow 7.02608 18.3113 25.5467
H 6.27914 18.8975 25.4269
H 6.86155 17.8817 0.970348
Ow 1.35651 0.660685 15.1797
H 1.44887 25.7379 16.0701
H 25.9073 25.7785 14.8981
Ow 8.69697 20.4995 0.755734
H 8.40855 19.5942 0.638928
H 8.96102 20.5506 1.67443
Ow 6.74115 12.9451 18.0924
H 7.05762 13.2811 17.2538
H 6.08268 13.5808 18.3726
Ow 2.8259 22.9408 4.70867
H 2.77321 21.995 4.57125
H 3.76338 23.1337 4.69378
Ow 12.7805 20.3399 6.74448
H 12.0954 20.4958 6.09441
H 12.3183 19.9576 7.51094
Ow 8.74772 12.0814 13.3938
H 9.5442 12.1538 13.9197
H 8.85105 12.7427 12.7095
Ow 4.19503 16.0867 0.898427
H 3.99324 15.1425 0.946621
H 3.80385 16.3892 25.4946
Ow 17.625 18.1777 14.322
H 16.7309 18.3051 14.6394
H 17.6495 18.637 13.4826
Ow 3.47208 19.0071 21.0718
H 4.18937 18.395 21.2358
H 2.96591 18.6005 20.3683
Ow 21.3013 20.2563 15.7276
H 21.6239 20.7587 16.4758
H 20.3487 20.3375 15.777
Ow 16.0214 18.9385 3.00747
H 16.7099 19.2799 3.57816
H 15.3146 19.5807 3.07356
Ow 23.8496 18.9896 13.4702
H 23.537 18.6335 12.6384
H 23.6423 19.923 13.4246
Ow 13.164 7.35427 25.0297
H 12.6231 6.62158 24.735
H 14.0161 6.96204 25.2204
Ow 18.4826 25.4404 22.3599
H 18.1157 0.627524 23.0132
H 17.7817 24.8201 22.1595
Ow 10.9928 23.4046 3.64211
H 10.3024 23.2445 4.28555
H 10.9506 24.346 3.47408
Ow 9.69092 2.83107 15.8682
H 9.16074 2.26368 16.428
H 10.5953 2.616 16.0964
Ow 16.7039 6.20052 20.1308
H 17.2354 5.54961 20.5892
H 16.9077 6.06789 19.2051
Ow 23.8557 5.65049 3.36971
H 23.0656 5.2465 3.7287
H 23.5461 6.15789 2.61946
Ow 20.4272 6.3069 21.9129
H 20.2183 7.22644 21.7481
H 20.4456 5.90549 21.0442
Ow 23.5844 3.71818 6.19034
H 23.4464 4.61823 6.48547
H 23.8562 3.24651 6.97774
Ow 22.4295 21.8441 3.06231
H 23.1114 22.0314 2.41725
H 22.5165 20.9073 3.23857
Ow 16.6093 16.2651 1.21179
H 16.4492 16.8348 25.8752
H 16.3733 16.7981 1.97099
Ow 16.1762 24.486 6.58593
H 15.4239 24.1429 7.06838
H 15.9801 24.2952 5.66857
Ow 5.8684 2.09482 1.00451
H 6.01271 2.27106 1.93424
H 5.96004 2.94854 0.581366
Ow 7.10598 20.5234 19.1814
H 7.89317 21.061 19.0937
H 6.913 20.5306 20.1343
Ow 12.0245 2.88592 10.8536
H 12.6412 3.10422 10.1548
H 12.4635 3.16513 11.657
Ow 5.87037 9.85794 0.688975
H 5.11075 10.4364 0.756605
H 5.70313 9.16618 1.32891
Ow 5.94439 22.1135 9.7539
H 6.53443 21.3386 9.69725
H 5.54172 22.1659 8.88707
Ow 24.6359 19.9818 16.6622
H 25.3407 19.4898 17.0835
H 25.0854 20.6524 16.1479
Ow 7.89033 1.12855 11.1139
H 8.16653 1.84177 10.5383
H 8.18694 1.39414 11.9845
Ow 18.1125 6.28278 25.1078
H 18.0369 5.31706 25.1748
H 18.8301 6.48374 25.7241
Ow 1.52436 22.9573 1.55056
H 2.42042 22.889 1.22085
H 1.58895 23.5489 2.30032
Ow 19.0028 25.7613 4.18377
H 18.9181 25.5873 5.12124
H 18.6968 1.24641 4.07833
Ow 12.7648 10.0806 1.88157
H 12.857 10.6893 2.61456
H 12.6878 9.20291 2.28664
Ow 23.6187 16.4375 2.34255
H 24.437 16.7163 1.93169
H 23.7274 15.4964 2.47973
Ow 23.5059 15.9357 7.46264
H 23.9751 16.4675 8.1056
H 23.9314 16.1361 6.62903
Ow 4.30855 14.5888 3.94789
H 3.83267 13.9212 3.4538
H 4.21406 14.3233 4.8627
Ow 23.9326 4.94191 19.5651
H 24.551 5.07853 20.2829
H 24.2492 5.51162 18.8641
Ow 23.7297 9.17061 5.42694
H 24.6381 9.35096 5.1849
H 23.3136 8.89603 4.60973
Ow 17.722 9.65523 9.02644
H 17.3396 9.28591 9.82246
H 17.2023 10.4399 8.85212
Ow 19.7191 22.8429 7.69505
H 19.5985 23.7143 7.31788
H 19.0572 22.786 8.38428
Ow 3.70099 5.30637 18.6447
H 4.19802 4.90181 19.3786
H 3.76132 6.24943 18.7971
Ow 20.5421 11.0482 3.92563
H 20.1266 11.0443 3.06353
H 19.8301 11.2455 4.5343
Ow 21.0906 3.40834 7.6535
H 21.9939 3.1107 7.54597
H 20.7999 3.61785 6.76582
Ow 9.4313 17.9463 14.6827
H 9.32366 17.0879 15.0924
H 8.57647 18.1368 14.2964
Ow 13.49 2.40887 18.3642
H 12.869 2.07558 19.0121
H 14.3597 2.33726 18.7826
Ow 25.9115 8.9029 1.61083
H 1.23668 8.80775 1.01229
H 25.1508 8.63385 1.09579
Ow 21.8518 8.11444 3.81427
H 21.1714 7.55904 4.19469
H 21.4597 8.98702 3.78263
Ow 5.47713 6.45454 0.532249
H 5.99466 6.50785 1.33582
H 5.94881 7.00386 25.3219
Ow 24.9036 24.5823 23.2433
H 24.6891 25.2584 22.6005
H 25.1033 23.807 22.7186
Ow 9.33639 17.8339 2.66826
H 9.49209 18.7632 2.83706
H 9.94766 17.3791 3.24762
Ow 0.952645 9.65001 4.45153
H 1.08602 9.42862 3.52985
H 1.38029 10.4997 4.55856
Ow 25.5019 17.4831 20.5993
H 25.0834 18.2785 20.2698
H 0.979229 17.5223 20.2571
Ow 7.93644 22.7493 22.5727
H 7.86023 23.5943 22.1295
H 7.75233 22.9428 23.4918
Ow 25.1302 14.8269 16.2239
H 24.6501 14.1382 15.7642
H 24.4755 15.5046 16.3922
Ow 25.3572 5.45785 14.512
H 25.7685 6.31843 14.5927
H 0.598577 4.91806 14.0726
Ow 18.6342 25.1756 6.919
H 18.691 25.6207 7.76454
H 17.7018 24.9888 6.80827
Ow 5.47 20.5364 16.8721
H 5.95131 20.7673 16.0776
H 6.09738 20.039 17.3966
Ow 10.0326 22.44 10.8021
H 10.7281 21.9619 11.2537
H 10.192 22.2745 9.8729
Ow 13.123 14.6613 2.70125
H 13.4177 15.5663 2.59903
H 13.5599 14.3551 3.49601
Ow 15.8295 22.1979 14.4059
H 15.3567 21.4772 13.9895
H 15.5493 22.9775 13.9265
Ow 16.8828 20.171 9.98446
H 17.6773 19.9943 10.4883
H 16.1674 19.9186 10.5681
Ow 2.62254 13.7572 17.4357
H 2.0291 14.2267 18.0218
H 2.7546 14.3542 16.6992
Ow 22.1087 21.9987 9.20741
H 21.5044 22.7013 9.44706
H 22.9416 22.4427 9.04743
Ow 2.07242 5.1634 1.28531
H 2.43099 4.54051 0.653168
H 1.60507 5.80552 0.75094
Ow 13.3957 24.2413 11.7871
H 13.7478 23.6269 11.143
H 14.1681 24.5983 12.2254
Ow 1.21887 10.9548 24.1584
H 1.93663 11.0957 23.5409
H 1.24312 11.7201 24.7331
Ow 2.91198 19.6616 16.7407
H 3.17725 19.096 16.0155
H 3.73567 19.9477 17.1357
Ow 3.40454 14.5446 8.82962
H 2.55629 14.9778 8.92492
H 3.57898 14.1662 9.69141
Ow 12.109 7.47376 2.1404
H 12.4967 7.2415 1.29658
H 12.6723 7.05004 2.78808
Ow 19.5994 7.87087 8.07256
H 19.9569 8.19205 7.2448
H 18.8562 8.44693 8.25275
Ow 1.2549 3.82349 21.8869
H 25.8742 3.66856 22.3947
H 1.21448 4.75117 21.6544
Ow 15.0656 18.5453 16.2449
H 15.2621 18.0249 17.0238
H 15.2416 19.4483 16.5089
Ow 13.8306 5.91404 3.76742
H 14.3521 5.33433 3.21235
H 13.2975 5.32234 4.2984
Ow 5.32366 1.62781 5.77097
H 6.22924 1.51411 6.071
H 5.04186 0.760021 5.48149
Ow 7.29625 10.1846 11.3819
H 6.54234 10.7502 11.2152
H 7.66183 10.5081 12.2053
Ow 18.5507 15.7459 13.6892
H 18.2008 16.6362 13.7231
H 19.1037 15.735 12.9079
Ow 14.3238 4.87748 25.7592
H 14.8457 4.49746 25.0523
H 13.7599 4.16175 0.636894
Ow 15.3119 22.696 10.2979
H 16.1844 22.9358 9.98589
H 14.8283 22.4654 9.50461
Ow 7.91031 4.45968 11.6382
H 8.00549 3.90458 10.8642
H 7.56523 5.28599 11.2999
Ow 4.44554 11.4894 15.8362
H 4.86281 12.0674 15.1974
H 4.14181 12.0765 16.5286
Ow 8.11031 25.3264 22.1958
H 7.91309 25.8117 22.9969
H 9.00148 25.5915 21.9679
Ow 4.15222 19.1031 14.1557
H 5.01435 18.7222 14.3228
H 3.82141 18.6243 13.3956
Ow 22.5336 22.0712 17.5374
H 22.3558 22.6587 16.803
H 21.7666 22.156 18.1038
Ow 11.7988 22.3897 15.3434
H 11.4923 21.7083 15.9417
H 11.828 23.1832 15.878
Ow 15.4031 21.686 4.36156
H 15.6958 22.4809 3.91587
H 15.9442 21.6396 5.14976
Ow 2.88481 6.85644 8.25114
H 2.46534 7.60068 7.81934
H 2.83725 7.06259 9.1847
Ow 23.0161 24.6044 25.1766
H 22.3131 24.6867 24.5322
H 23.8092 24.4892 24.6531
Ow 18.1671 2.29497 20.8817
H 17.995 3.02515 21.4761
H 18.375 1.55999 21.4586
Ow 15.5249 21.2423 16.9392
H 15.6582 21.6966 16.1071
H 14.8412 21.746 17.3809
Ow 7.89656 1.25975 24.5511
H 8.55277 0.851728 25.116
H 7.15731 1.43864 25.1323
Ow 23.1056 19.3228 4.23316
H 22.5498 19.3721 5.0109
H 22.598 18.8056 3.60779
Ow 14.3648 10.6309 14.9483
H 14.7276 10.8229 15.8331
H 14.6223 11.3871 14.4209
Ow 8.74366 21.0741 15.1133
H 8.64003 20.7072 14.2355
H 8.94159 21.9989 14.9652
Ow 25.0954 13.7378 22.8549
H 25.6857 13.242 22.2873
H 24.3822 13.1141 23.0751
Ow 13.6471 16.697 14.6015
H 14.1844 17.2492 15.1695
H 13.8229 17.0194 13.7175
Ow 12.7476 16.3898 25.0162
H 12.6362 15.4473 25.1417
H 13.6805 16.5433 25.1664
Ow 8.80813 18.0709 19.7395
H 8.25056 18.6327 19.2012
H 8.96004 17.2953 19.1995
Ow 7.88869 23.845 8.96884
H 7.84931 23.6362 8.03549
H 7.47189 23.0986 9.39946
Ow 14.2668 12.8592 11.4464
H 14.3042 13.3825 12.247
H 13.7384 12.0967 11.6825
Ow 13.0591 9.63083 23.3238
H 12.8627 8.83167 23.8129
H 12.3478 10.2306 23.5488
Ow 5.05013 23.7769 20.0318
H 5.2552 23.9934 20.9414
H 4.73585 24.5986 19.6546
Ow 0.897288 12.59 10.2246
H 1.54438 12.9017 10.8575
H 1.01433 11.6401 10.2097
Ow 18.7118 20.6213 15.7242
H 18.6325 21.2375 14.9959
H 18.2245 19.8484 15.4389
Ow 6.83419 4.58657 14.2637
H 6.68177 3.67426 14.5103
H 7.05931 4.54948 13.3341
Ow 19.8706 6.65244 18.8715
H 19.5342 7.4469 19.2859
H 19.1063 6.0817 18.7912
Ow 15.6756 11.6877 22.1859
H 14.8459 12.1653 22.1808
H 16.2219 12.1624 22.8124
Ow 22.8176 18.9593 24.563
H 22.9877 18.7564 25.4829
H 21.8659 18.904 24.477
Ow 6.42428 5.14409 6.22115
H 7.36486 5.05236 6.37345
H 6.22606 4.49464 5.54645
Ow 17.9167 18.5354 17.9169
H 18.5473 18.2068 18.5578
H 17.3727 17.7769 17.7051
Ow 3.73985 17.6002 5.27549
H 4.25182 17.5795 6.08397
H 3.82536 18.4998 4.96013
Ow 17.4296 8.4956 23.0259
H 17.496 7.57819 23.2909
H 17.8727 8.97947 23.723
Ow 17.7578 22.0885 23.8132
H 17.8154 21.2987 24.351
H 18.189 22.7658 24.3346
Ow 21.3331 8.37449 10.3168
H 20.9015 8.13731 9.49603
H 21.813 7.58656 10.5722
Ow 12.4579 1.8484 15.9794
H 12.8207 2.16219 16.8077
H 13.1261 2.06245 15.3283
Ow 6.95081 22.5291 25.397
H 7.49079 21.7406 25.4522
H 7.07114 22.9621 0.826425
Ow 12.2503 8.2706 19.7743
H 12.2938 7.6552 20.5065
H 12.1663 9.12987 20.1879
Ow 21.0756 13.6233 7.62582
H 21.7346 13.4225 6.96116
H 20.25 13.3281 7.24192
Ow 9.62351 13.7071 10.9441
H 9.29291 13.311 10.1379
H 9.04376 14.4526 11.1005
Ow 21.9473 23.8382 15.4603
H 22.5832 24.4009 15.0182
H 21.1441 23.9357 14.9487
Ow 19.9343 6.17198 11.8333
H 20.2876 5.47744 11.2773
H 19.0059 5.9572 11.9249
Ow 19.2287 13.0525 23.1976
H 19.16 12.3029 23.789
H 20.0452 12.907 22.7197
Ow 2.70128 1.97227 2.54777
H 3.42716 1.37607 2.73197
H 2.20941 1.54257 1.84792
Ow 4.01172 19.3622 9.89947
H 4.45979 18.7823 9.28353
H 3.76363 18.7929 10.6279
Ow 5.50257 8.83881 16.4426
H 4.93009 9.59368 16.3062
H 5.32034 8.55865 17.3396
Ow 20.6995 10.9941 20.0195
H 20.169 11.2463 19.2637
H 21.4956 10.6216 19.6405
Ow 16.2945 8.43374 14.5196
H 16.1886 8.84588 15.3771
H 17.1229 8.77969 14.1878
Ow 21.2313 17.6129 13.9416
H 20.9864 18.3902 13.4396
H 21.4564 16.9601 13.2786
Ow 12.4845 23.5196 24.3733
H 12.0682 23.0767 25.1127
H 12.1423 24.4222 24.3921
Ow 10.0755 4.51729 13.3068
H 9.40008 4.5282 12.6285
H 10.9043 4.31826 12.8377
Ow 23.5769 25.2236 2.57683
H 24.4736 25.099 2.88785
H 23.4994 24.6351 1.8258
Ow 11.8155 10.7322 21.0219
H 12.6005 11.1097 20.6249
H 12.1145 10.386 21.8628
Ow 7.41358 12.9865 25.4172
H 7.35075 12.5197 0.834917
H 8.35397 13.0784 25.2641
Ow 22.8006 6.35938 6.61668
H 23.1898 7.16664 6.24825
H 22.9074 6.45748 7.56293
Ow 3.18046 0.929737 8.71785
H 3.99261 25.9106 8.4583
H 2.53264 25.6417 8.75501
Ow 3.50233 2.51695 21.0413
H 2.59438 2.81134 21.1144
H 3.99299 3.30661 20.8133
Ow 14.2127 17.6119 6.434
H 13.5837 18.3161 6.59096
H 15.0542 17.9761 6.70889
Ow 17.3532 5.88886 15.0183
H 17.4156 5.51824 14.138
H 17.0175 6.77501 14.8825
Ow 18.2866 9.66399 18.5435
H 18.2439 9.5572 19.4939
H 17.5004 9.22622 18.2174
Ow 16.2233 11.0669 5.45895
H 16.3183 10.6192 4.61819
H 15.6794 10.4793 5.98344
Ow 17.5533 13.5695 15.0324
H 18.2858 13.0085 15.2868
H 17.9576 14.2833 14.5391
Ow 1.14331 9.69829 11.5209
H 1.84258 10.2779 11.8232
H 1.58721 8.87743 11.3079
Ow 6.52442 21.3239 3.54947
H 6.05562 21.6566 4.31486
H 6.80693 22.1095 3.08085
Ow 22.2541 1.12306 5.49127
H 22.03 1.95564 5.90694
H 23.2016 1.04597 5.60414
Ow 6.27083 20.4935 21.8395
H 5.44314 20.6977 22.2749
H 6.86973 21.1826 22.1273
Ow 19.8759 18.3422 3.83592
H 19.8457 17.6048 4.44557
H 19.0656 18.824 4.00171
Ow 7.6076 24.0475 12.6322
H 7.16413 23.3257 13.0779
H 6.93776 24.7263 12.5498
Ow 4.41022 25.739 24.8506
H 4.92556 0.967313 25.3364
H 3.53271 0.703017 24.8052
Ow 20.818 7.85266 16.6509
H 21.4187 7.23384 16.2356
H 20.3567 7.33373 17.31
Ow 19.1274 16.7283 8.04888
H 18.6158 15.9198 8.02185
H 19.1227 16.9846 8.9712
Ow 22.4562 2.87824 13.1831
H 21.8395 3.60798 13.2417
H 23.1771 3.12626 13.762
Ow 19.0911 8.76887 20.913
H 18.5821 8.88291 21.7155
H 19.5644 9.59451 20.8097
Ow 12.5916 12.8672 25.5018
H 12.1714 12.0677 25.1844
H 13.5206 12.6439 25.5582
Ow 22.934 6.74569 23.1899
H 23.4642 7.26413 22.5848
H 22.1277 6.5638 22.7071
Ow 24.939 21.7509 11.0348
H 24.6022 21.002 10.5431
H 24.7823 22.5031 10.4637
Ow 4.60208 0.953817 18.6784
H 4.68539 1.67129 18.0503
H 4.14334 1.34002 19.4246
Ow 9.10143 9.45046 14.4957
H 9.97754 9.36489 14.1197
H 8.80384 10.3163 14.2162
Ow 15.5817 4.22335 3.00455
H 14.9394 3.62313 3.38326
H 15.5875 4.0111 2.07117
Ow 8.64504 4.54177 1.16395
H 9.13792 3.73263 1.02738
H 8.90746 5.10805 25.8539
Ow 12.2068 21.2629 12.7854
H 11.9455 21.8696 13.4782
H 11.9752 20.398 13.124
Ow 15.7151 7.17568 0.58362
H 16.5914 6.97197 25.6722
H 15.3204 6.32174 0.760256
Ow 4.86372 24.0032 16.8944
H 5.62908 24.577 16.858
H 4.33858 24.2334 16.1061
Ow 21.4345 24.7872 10.3438
H 20.6004 24.5837 10.7669
H 21.5164 25.7379 10.4194
Ow 13.0784 4.62919 13.2923
H 13.527 5.44298 13.0625
H 12.7381 4.78339 14.1735
Ow 24.0933 22.109 6.12364
H 24.5458 22.971 6.07874
H 24.4862 21.5972 5.41657
Ow 19.2527 21.7841 21.4898
H 18.8286 21.8592 22.3448
H 20.1506 22.0796 21.6406
Ow 25.074 11.8105 18.5592
H 24.9157 12.7011 18.8724
H 0.562334 11.6242 18.8125
Ow 16.887 18.3162 7.59454
H 17.7834 17.989 7.66988
H 16.7834 18.9065 8.34091
Ow 16.145 24.7392 1.33522
H 15.8034 24.5312 25.8812
H 15.8833 25.6476 1.4848
Ow 21.0211 25.1339 23.3804
H 20.0916 24.9492 23.5152
H 21.0327 0.509277 22.8416
Ow 8.90432 18.5207 7.49514
H 9.25779 17.7002 7.15119
H 8.86248 19.1013 6.7352
Ow 7.18696 7.10867 10.8991
H 6.57826 6.90096 10.1903
H 7.28021 8.07958 10.8705
Ow 3.19355 3.41619 24.8405
H 2.96653 3.56359 23.9224
H 4.09164 3.73781 24.9203
Ow 15.4504 9.80446 25.1871
H 14.5912 10.1527 25.4253
H 15.4055 8.8764 25.4175
Ow 20.5496 25.8285 1.48348
H 20.3182 25.0288 1.01098
H 19.808 1.00032 1.33851
Ow 10.5423 22.3177 22.2653
H 10.9022 22.9163 22.9197
H 9.59343 22.3949 22.3656
Ow 21.4857 18.4079 1.58299
H 21.9388 17.5664 1.52947
H 20.9043 18.32 2.33831
Ow 13.4117 13.3859 22.1271
H 12.4704 13.5312 22.2206
H 13.6689 13.9438 21.393
Ow 3.26421 20.1522 4.29663
H 2.36684 20.2488 3.97794
H 3.78744 20.0241 3.50536
Ow 16.0565 14.2056 23.6173
H 15.1072 14.0885 23.485
H 16.1851 14.1337 24.5631
Ow 11.2819 5.36353 24.2759
H 11.2993 4.55743 24.7918
H 10.4397 5.76604 24.4878
Ow 0.706398 5.1809 7.28531
H 25.4185 5.70739 7.66474
H 1.50851 5.55019 7.65486
Ow 0.769608 15.7646 8.81411
H 25.5491 16.4705 8.92919
H 25.7431 15.1327 8.24721
Ow 11.8822 20.1785 23.2992
H 11.6489 19.8442 24.1653
H 11.1189 20.6865 23.0244
Ow 2.09735 3.34072 9.87393
H 2.22626 2.38673 9.72778
H 1.40168 3.38609 10.5298
Ow 6.03943 11.5496 23.2049
H 6.49495 11.769 24.0176
H 6.13803 10.6009 23.1234
Ow 7.02332 8.41982 7.45383
H 6.74173 9.05912 8.10806
H 6.61803 7.59818 7.73098
Ow 11.6363 18.783 13.4461
H 10.8215 18.4755 13.8432
H 12.3174 18.2426 13.8465
Ow 3.60904 17.5216 11.8352
H 2.84184 16.9659 11.6975
H 4.35451 16.9553 11.6354
Ow 9.94462 13.8986 4.25086
H 9.03056 14.1689 4.16209
H 9.91767 13.133 4.855
Ow 25.0139 9.01128 22.8899
H 24.9999 9.32985 21.9874
H 25.7783 9.43379 23.2818
Ow 6.64405 15.5774 24.5733
H 6.03547 16.1162 25.0788
H 6.64577 14.7319 25.0221
Ow 2.6701 11.5914 8.25641
H 2.24776 12.2094 8.85305
H 3.0852 12.1432 7.5936